MODEL 1
REMARK VINA RESULT:      -0.2      0.000      0.000
REMARK  Generated by RDKit with Gasteiger charges
REMARK  --------------------------------------------------
ROOT
ATOM      1  N   UNK A   1      -4.179  19.045  -7.949  1.00  0.00    -0.131 N 
ATOM      2  C   UNK A   1      -5.098  18.336  -7.024  1.00  0.00    +0.121 C 
ATOM      3  C   UNK A   1      -4.455  18.332  -5.645  1.00  0.00    -0.037 C 
ATOM      4  C   UNK A   1      -6.474  19.031  -7.043  1.00  0.00    +0.262 C 
ATOM      5  O   UNK A   1      -6.583  20.230  -7.319  1.00  0.00    -0.271 OA
ATOM      6  N   UNK A   1      -7.426  18.113  -6.855  1.00  0.00    -0.236 N 
ATOM      7  C   UNK A   1      -8.568  18.458  -5.904  1.00  0.00    +0.143 C 
ATOM      8  C   UNK A   1      -9.637  17.317  -6.016  1.00  0.00    +0.025 C 
ATOM      9  S   UNK A   1     -10.563  17.170  -7.636  1.00  0.00    -0.154 S 
ATOM     10  C   UNK A   1      -8.109  18.483  -4.380  1.00  0.00    +0.267 C 
ATOM     11  O   UNK A   1      -7.092  17.875  -4.025  1.00  0.00    -0.270 OA
ATOM     12  N   UNK A   1      -8.831  19.304  -3.573  1.00  0.00    -0.235 N 
ATOM     13  C   UNK A   1     -10.006  18.654  -2.814  1.00  0.00    +0.143 C 
ATOM     14  C   UNK A   1      -9.969  18.711  -1.222  1.00  0.00    +0.060 C 
ATOM     15  C   UNK A   1      -9.308  17.611  -0.226  1.00  0.00    +0.244 C 
ATOM     16  O   UNK A   1      -8.169  17.820   0.225  1.00  0.00    -0.273 OA
ATOM     17  C   UNK A   1     -11.407  19.274  -3.383  1.00  0.00    +0.267 C 
ATOM     18  O   UNK A   1     -12.194  18.492  -3.916  1.00  0.00    -0.270 OA
ATOM     19  N   UNK A   1     -10.137  16.592   0.150  1.00  0.00    -0.238 N 
ATOM     20  C   UNK A   1      -9.917  15.984   1.547  1.00  0.00    +0.135 C 
ATOM     21  C   UNK A   1     -10.336  17.009   2.640  1.00  0.00    -0.013 C 
ATOM     22  C   UNK A   1     -11.703  17.691   2.486  1.00  0.00    +0.029 C 
ATOM     23  C   UNK A   1     -12.768  17.071   3.363  1.00  0.00    +0.217 C 
ATOM     24  O   UNK A   1     -13.091  17.535   4.465  1.00  0.00    -0.275 OA
ATOM     25  N   UNK A   1     -13.389  16.001   2.799  1.00  0.00    -0.370 N 
ATOM     26  C   UNK A   1     -10.411  14.436   1.774  1.00  0.00    +0.266 C 
ATOM     27  O   UNK A   1     -10.062  13.564   0.973  1.00  0.00    -0.270 OA
ATOM     28  N   UNK A   1     -11.677  20.582  -3.138  1.00  0.00    -0.236 N 
ATOM     29  C   UNK A   1     -12.400  21.426  -4.174  1.00  0.00    +0.131 C 
ATOM     30  C   UNK A   1     -11.363  21.804  -5.260  1.00  0.00    -0.033 C 
ATOM     31  C   UNK A   1     -13.763  21.144  -4.938  1.00  0.00    +0.266 C 
ATOM     32  O   UNK A   1     -13.772  20.544  -6.018  1.00  0.00    -0.270 OA
ATOM     33  N   UNK A   1     -11.042  14.204   2.963  1.00  0.00    -0.235 N 
ATOM     34  C   UNK A   1     -11.562  12.768   3.268  1.00  0.00    +0.143 C 
ATOM     35  C   UNK A   1     -11.239  12.375   4.811  1.00  0.00    +0.060 C 
ATOM     36  C   UNK A   1     -10.305  11.156   5.254  1.00  0.00    +0.244 C 
ATOM     37  O   UNK A   1      -9.471  10.634   4.511  1.00  0.00    -0.273 OA
ATOM     38  C   UNK A   1     -13.169  12.803   3.136  1.00  0.00    +0.267 C 
ATOM     39  O   UNK A   1     -13.845  13.550   3.859  1.00  0.00    -0.270 OA
ATOM     40  N   UNK A   1     -14.843  21.816  -4.436  1.00  0.00    -0.235 N 
ATOM     41  C   UNK A   1     -16.208  21.280  -4.903  1.00  0.00    +0.143 C 
ATOM     42  C   UNK A   1     -16.541  20.033  -3.997  1.00  0.00    +0.027 C 
ATOM     43  S   UNK A   1     -17.312  18.523  -4.796  1.00  0.00    -0.140 S 
ATOM     44  C   UNK A   1     -17.312  22.446  -4.724  1.00  0.00    +0.267 C 
ATOM     45  O   UNK A   1     -17.688  22.812  -3.603  1.00  0.00    -0.270 OA
ATOM     46  N   UNK A   1     -10.480  10.819   6.577  1.00  0.00    -0.235 N 
ATOM     47  C   UNK A   1      -9.333  10.060   7.174  1.00  0.00    +0.157 C 
ATOM     48  C   UNK A   1      -8.134  11.000   7.458  1.00  0.00    +0.075 C 
ATOM     49  O   UNK A   1      -6.873  10.294   7.363  1.00  0.00    -0.394 OA
ATOM     50  C   UNK A   1      -9.647   9.212   8.442  1.00  0.00    +0.269 C 
ATOM     51  O   UNK A   1      -9.268   8.039   8.538  1.00  0.00    -0.270 OA
ATOM     52  N   UNK A   1     -13.743  11.833   2.384  1.00  0.00    -0.236 N 
ATOM     53  C   UNK A   1     -13.764  12.070   0.892  1.00  0.00    +0.140 C 
ATOM     54  C   UNK A   1     -13.236  10.766   0.180  1.00  0.00    +0.023 C 
ATOM     55  C   UNK A   1     -14.212   9.605   0.114  1.00  0.00    +0.061 C 
ATOM     56  C   UNK A   1     -15.206   9.296   1.025  1.00  0.00    +0.024 C 
ATOM     57  N   UNK A   1     -16.055   8.487   0.349  1.00  0.00    -0.351 N 
ATOM     58  C   UNK A   1     -15.461   8.140  -0.825  1.00  0.00    +0.092 C 
ATOM     59  N   UNK A   1     -14.297   8.730  -0.975  1.00  0.00    -0.242 N 
ATOM     60  C   UNK A   1     -15.177  12.460   0.283  1.00  0.00    +0.267 C 
ATOM     61  O   UNK A   1     -16.263  12.176   0.804  1.00  0.00    -0.270 OA
ATOM     62  N   UNK A   1     -17.806  22.957  -5.895  1.00  0.00    -0.236 N 
ATOM     63  C   UNK A   1     -18.142  24.431  -5.817  1.00  0.00    +0.136 C 
ATOM     64  C   UNK A   1     -16.871  25.332  -6.009  1.00  0.00    -0.015 C 
ATOM     65  C   UNK A   1     -15.889  24.819  -7.072  1.00  0.00    -0.060 C 
ATOM     66  C   UNK A   1     -16.129  25.582  -4.691  1.00  0.00    -0.060 C 
ATOM     67  C   UNK A   1     -19.219  24.892  -6.877  1.00  0.00    +0.266 C 
ATOM     68  O   UNK A   1     -18.936  25.286  -8.010  1.00  0.00    -0.270 OA
ATOM     69  N   UNK A   1     -10.201   9.851   9.489  1.00  0.00    -0.234 N 
ATOM     70  C   UNK A   1     -11.291   9.118  10.197  1.00  0.00    +0.155 C 
ATOM     71  C   UNK A   1     -12.229   8.320   9.260  1.00  0.00    +0.006 C 
ATOM     72  C   UNK A   1     -13.697   8.393   9.639  1.00  0.00    -0.045 C 
ATOM     73  C   UNK A   1     -14.240   7.587  10.644  1.00  0.00    -0.059 C 
ATOM     74  C   UNK A   1     -15.600   7.660  10.947  1.00  0.00    -0.062 C 
ATOM     75  C   UNK A   1     -16.431   8.541  10.254  1.00  0.00    -0.062 C 
ATOM     76  C   UNK A   1     -15.896   9.361   9.264  1.00  0.00    -0.062 C 
ATOM     77  C   UNK A   1     -14.534   9.294   8.967  1.00  0.00    -0.059 C 
ATOM     78  C   UNK A   1     -10.761   8.208  11.305  1.00  0.00    +0.328 C 
ATOM     79  O   UNK A   1     -11.378   7.905  12.327  1.00  0.00    -0.250 OA
ATOM     80  O   UNK A   1      -9.536   7.675  11.066  1.00  0.00    -0.480 OA
ATOM     81  N   UNK A   1     -15.089  12.936  -0.982  1.00  0.00    -0.233 N 
ATOM     82  C   UNK A   1     -16.273  13.654  -1.565  1.00  0.00    +0.160 C 
ATOM     83  C   UNK A   1     -15.772  14.728  -2.607  1.00  0.00    +0.028 C 
ATOM     84  S   UNK A   1     -17.102  15.909  -3.210  1.00  0.00    -0.140 S 
ATOM     85  C   UNK A   1     -17.213  12.605  -2.207  1.00  0.00    +0.329 C 
ATOM     86  O   UNK A   1     -17.760  12.655  -3.306  1.00  0.00    -0.250 OA
ATOM     87  O   UNK A   1     -17.499  11.555  -1.375  1.00  0.00    -0.480 OA
ATOM     88  N   UNK A   1     -20.483  24.946  -6.409  1.00  0.00    -0.238 N 
ATOM     89  C   UNK A   1     -21.019  23.628  -6.051  1.00  0.00    +0.140 C 
ATOM     90  C   UNK A   1     -21.116  22.681  -7.228  1.00  0.00    +0.325 C 
ATOM     91  O   UNK A   1     -22.171  22.457  -7.830  1.00  0.00    -0.250 OA
ATOM     92  O   UNK A   1     -19.959  22.071  -7.560  1.00  0.00    -0.480 OA
ATOM     93  C   UNK A   1     -14.830  15.263  -7.408  1.00  0.00    -0.059 C 
ATOM     94  C   UNK A   1     -13.657  15.989  -7.663  1.00  0.00    -0.058 C 
ATOM     95  C   UNK A   1     -13.310  17.065  -6.854  1.00  0.00    -0.038 C 
ATOM     96  C   UNK A   1     -12.133  17.997  -7.128  1.00  0.00    +0.019 C 
ATOM     97  C   UNK A   1     -14.177  17.362  -5.789  1.00  0.00    -0.053 C 
ATOM     98  C   UNK A   1     -15.347  16.628  -5.461  1.00  0.00    -0.022 C 
ATOM     99  C   UNK A   1     -16.094  17.154  -4.220  1.00  0.00    +0.076 C 
ATOM    100  C   UNK A   1     -15.703  15.590  -6.343  1.00  0.00    -0.046 C 
ATOM    101  C   UNK A   1     -16.960  14.784  -6.210  1.00  0.00    -0.039 C 
ATOM    102  H   UNK A   1      -5.184  17.315  -7.415  1.00  0.00    +0.060 HD
ATOM    103  H   UNK A   1      -3.382  18.109  -5.706  1.00  0.00    +0.025 HD
ATOM    104  H   UNK A   1      -4.902  17.556  -5.019  1.00  0.00    +0.025 HD
ATOM    105  H   UNK A   1      -4.576  19.292  -5.131  1.00  0.00    +0.025 HD
ATOM    106  H   UNK A   1      -9.018  19.424  -6.160  1.00  0.00    +0.067 HD
ATOM    107  H   UNK A   1     -10.386  17.373  -5.224  1.00  0.00    +0.041 HD
ATOM    108  H   UNK A   1      -9.138  16.348  -5.878  1.00  0.00    +0.041 HD
ATOM    109  H   UNK A   1     -10.051  17.580  -3.051  1.00  0.00    +0.066 HD
ATOM    110  H   UNK A   1      -9.500  19.662  -0.935  1.00  0.00    +0.040 HD
ATOM    111  H   UNK A   1     -11.007  18.804  -0.872  1.00  0.00    +0.040 HD
ATOM    112  H   UNK A   1      -8.830  15.850   1.686  1.00  0.00    +0.066 HD
ATOM    113  H   UNK A   1     -10.242  16.564   3.639  1.00  0.00    +0.030 HD
ATOM    114  H   UNK A   1      -9.590  17.817   2.623  1.00  0.00    +0.030 HD
ATOM    115  H   UNK A   1     -11.618  18.737   2.806  1.00  0.00    +0.037 HD
ATOM    116  H   UNK A   1     -12.061  17.722   1.452  1.00  0.00    +0.037 HD
ATOM    117  H   UNK A   1     -12.820  15.485   2.110  1.00  0.00    +0.159 HD
ATOM    118  H   UNK A   1     -13.749  15.286   3.437  1.00  0.00    +0.159 HD
ATOM    119  H   UNK A   1     -12.594  22.378  -3.652  1.00  0.00    +0.065 HD
ATOM    120  H   UNK A   1     -11.778  22.542  -5.960  1.00  0.00    +0.026 HD
ATOM    121  H   UNK A   1     -10.457  22.235  -4.816  1.00  0.00    +0.026 HD
ATOM    122  H   UNK A   1     -11.066  20.922  -5.841  1.00  0.00    +0.026 HD
ATOM    123  H   UNK A   1     -11.144  12.000   2.609  1.00  0.00    +0.066 HD
ATOM    124  H   UNK A   1     -12.201  12.185   5.307  1.00  0.00    +0.040 HD
ATOM    125  H   UNK A   1     -10.809  13.258   5.304  1.00  0.00    +0.040 HD
ATOM    126  H   UNK A   1     -16.194  20.986  -5.960  1.00  0.00    +0.067 HD
ATOM    127  H   UNK A   1     -15.644  19.691  -3.470  1.00  0.00    +0.041 HD
ATOM    128  H   UNK A   1     -17.249  20.329  -3.214  1.00  0.00    +0.041 HD
ATOM    129  H   UNK A   1      -9.019   9.289   6.452  1.00  0.00    +0.068 HD
ATOM    130  H   UNK A   1      -8.075  11.814   6.725  1.00  0.00    +0.059 HD
ATOM    131  H   UNK A   1      -8.192  11.456   8.452  1.00  0.00    +0.059 HD
ATOM    132  H   UNK A   1      -7.056   9.704   6.606  1.00  0.00    +0.210 HD
ATOM    133  H   UNK A   1     -13.063  12.879   0.626  1.00  0.00    +0.066 HD
ATOM    134  H   UNK A   1     -12.958  11.018  -0.851  1.00  0.00    +0.036 HD
ATOM    135  H   UNK A   1     -12.322  10.421   0.678  1.00  0.00    +0.036 HD
ATOM    136  H   UNK A   1     -15.458   9.798   1.953  1.00  0.00    +0.084 HD
ATOM    137  H   UNK A   1     -17.001   8.297   0.637  1.00  0.00    +0.167 HD
ATOM    138  H   UNK A   1     -15.928   7.490  -1.547  1.00  0.00    +0.104 HD
ATOM    139  H   UNK A   1     -18.571  24.697  -4.840  1.00  0.00    +0.066 HD
ATOM    140  H   UNK A   1     -17.214  26.322  -6.344  1.00  0.00    +0.032 HD
ATOM    141  H   UNK A   1     -15.370  23.913  -6.748  1.00  0.00    +0.023 HD
ATOM    142  H   UNK A   1     -15.124  25.576  -7.278  1.00  0.00    +0.023 HD
ATOM    143  H   UNK A   1     -16.396  24.605  -8.018  1.00  0.00    +0.023 HD
ATOM    144  H   UNK A   1     -16.807  25.998  -3.937  1.00  0.00    +0.023 HD
ATOM    145  H   UNK A   1     -15.318  26.305  -4.839  1.00  0.00    +0.023 HD
ATOM    146  H   UNK A   1     -15.688  24.668  -4.287  1.00  0.00    +0.023 HD
ATOM    147  H   UNK A   1     -11.876   9.886  10.727  1.00  0.00    +0.068 HD
ATOM    148  H   UNK A   1     -12.151   8.672   8.225  1.00  0.00    +0.034 HD
ATOM    149  H   UNK A   1     -11.939   7.260   9.227  1.00  0.00    +0.034 HD
ATOM    150  H   UNK A   1     -13.591   6.908  11.189  1.00  0.00    +0.063 HD
ATOM    151  H   UNK A   1     -16.004   7.017  11.718  1.00  0.00    +0.062 HD
ATOM    152  H   UNK A   1     -17.488   8.599  10.490  1.00  0.00    +0.062 HD
ATOM    153  H   UNK A   1     -16.514  10.053   8.702  1.00  0.00    +0.062 HD
ATOM    154  H   UNK A   1     -14.117   9.943   8.187  1.00  0.00    +0.063 HD
ATOM    155  H   UNK A   1      -9.307   8.025  10.153  1.00  0.00    +0.296 HD
ATOM    156  H   UNK A   1     -16.850  14.184  -0.795  1.00  0.00    +0.068 HD
ATOM    157  H   UNK A   1     -14.987  15.349  -2.155  1.00  0.00    +0.041 HD
ATOM    158  H   UNK A   1     -15.358  14.230  -3.489  1.00  0.00    +0.041 HD
ATOM    159  H   UNK A   1     -16.915  11.734  -0.579  1.00  0.00    +0.296 HD
ATOM    160  H   UNK A   1     -20.490  23.125  -5.232  1.00  0.00    +0.064 HD
ATOM    161  H   UNK A   1     -22.044  23.744  -5.675  1.00  0.00    +0.064 HD
ATOM    162  H   UNK A   1     -19.199  22.378  -6.962  1.00  0.00    +0.296 HD
ATOM    163  H   UNK A   1     -15.069  14.429  -8.057  1.00  0.00    +0.063 HD
ATOM    164  H   UNK A   1     -13.017  15.714  -8.494  1.00  0.00    +0.063 HD
ATOM    165  H   UNK A   1     -11.924  18.669  -6.296  1.00  0.00    +0.043 HD
ATOM    166  H   UNK A   1     -12.427  18.638  -7.968  1.00  0.00    +0.043 HD
ATOM    167  H   UNK A   1     -13.943  18.237  -5.176  1.00  0.00    +0.063 HD
ATOM    168  H   UNK A   1     -15.389  17.586  -3.504  1.00  0.00    +0.058 HD
ATOM    169  H   UNK A   1     -16.820  13.968  -5.499  1.00  0.00    +0.028 HD
ATOM    170  H   UNK A   1     -17.810  15.408  -5.928  1.00  0.00    +0.028 HD
ATOM    171  H   UNK A   1     -17.232  14.339  -7.173  1.00  0.00    +0.028 HD
ENDROOT
TORSDOF 0
ENDMDL
MODEL 2
REMARK VINA RESULT:       2.4      1.654      1.975
REMARK  Generated by RDKit with Gasteiger charges
REMARK  --------------------------------------------------
ROOT
ATOM      1  N   UNK A   1      -3.924  17.335  -8.011  1.00  0.00    -0.131 N 
ATOM      2  C   UNK A   1      -4.997  16.894  -7.085  1.00  0.00    +0.121 C 
ATOM      3  C   UNK A   1      -4.370  16.687  -5.715  1.00  0.00    -0.037 C 
ATOM      4  C   UNK A   1      -6.124  17.946  -7.078  1.00  0.00    +0.262 C 
ATOM      5  O   UNK A   1      -5.895  19.133  -7.335  1.00  0.00    -0.271 OA
ATOM      6  N   UNK A   1      -7.293  17.327  -6.891  1.00  0.00    -0.236 N 
ATOM      7  C   UNK A   1      -8.285  17.961  -5.922  1.00  0.00    +0.143 C 
ATOM      8  C   UNK A   1      -9.632  17.167  -6.038  1.00  0.00    +0.025 C 
ATOM      9  S   UNK A   1     -10.574  17.313  -7.649  1.00  0.00    -0.154 S 
ATOM     10  C   UNK A   1      -7.826  17.831  -4.404  1.00  0.00    +0.267 C 
ATOM     11  O   UNK A   1      -7.017  16.957  -4.069  1.00  0.00    -0.270 OA
ATOM     12  N   UNK A   1      -8.285  18.807  -3.576  1.00  0.00    -0.235 N 
ATOM     13  C   UNK A   1      -9.588  18.497  -2.812  1.00  0.00    +0.143 C 
ATOM     14  C   UNK A   1      -9.525  18.514  -1.220  1.00  0.00    +0.060 C 
ATOM     15  C   UNK A   1      -9.190  17.256  -0.249  1.00  0.00    +0.244 C 
ATOM     16  O   UNK A   1      -8.035  17.131   0.192  1.00  0.00    -0.273 OA
ATOM     17  C   UNK A   1     -10.765  19.494  -3.356  1.00  0.00    +0.267 C 
ATOM     18  O   UNK A   1     -11.743  18.972  -3.890  1.00  0.00    -0.270 OA
ATOM     19  N   UNK A   1     -10.269  16.504   0.123  1.00  0.00    -0.238 N 
ATOM     20  C   UNK A   1     -10.217  15.834   1.507  1.00  0.00    +0.135 C 
ATOM     21  C   UNK A   1     -10.324  16.916   2.621  1.00  0.00    -0.013 C 
ATOM     22  C   UNK A   1     -11.448  17.955   2.493  1.00  0.00    +0.029 C 
ATOM     23  C   UNK A   1     -12.636  17.643   3.373  1.00  0.00    +0.217 C 
ATOM     24  O   UNK A   1     -12.809  18.159   4.486  1.00  0.00    -0.275 OA
ATOM     25  N   UNK A   1     -13.536  16.799   2.802  1.00  0.00    -0.370 N 
ATOM     26  C   UNK A   1     -11.122  14.482   1.718  1.00  0.00    +0.266 C 
ATOM     27  O   UNK A   1     -11.037  13.561   0.901  1.00  0.00    -0.270 OA
ATOM     28  N   UNK A   1     -10.656  20.821  -3.089  1.00  0.00    -0.236 N 
ATOM     29  C   UNK A   1     -11.123  21.852  -4.103  1.00  0.00    +0.131 C 
ATOM     30  C   UNK A   1     -10.029  21.944  -5.196  1.00  0.00    -0.033 C 
ATOM     31  C   UNK A   1     -12.515  21.975  -4.855  1.00  0.00    +0.266 C 
ATOM     32  O   UNK A   1     -12.700  21.420  -5.943  1.00  0.00    -0.270 OA
ATOM     33  N   UNK A   1     -11.784  14.415   2.911  1.00  0.00    -0.235 N 
ATOM     34  C   UNK A   1     -12.682  13.176   3.202  1.00  0.00    +0.143 C 
ATOM     35  C   UNK A   1     -12.470  12.682   4.735  1.00  0.00    +0.060 C 
ATOM     36  C   UNK A   1     -11.911  11.243   5.148  1.00  0.00    +0.244 C 
ATOM     37  O   UNK A   1     -11.262  10.522   4.388  1.00  0.00    -0.273 OA
ATOM     38  C   UNK A   1     -14.216  13.661   3.089  1.00  0.00    +0.267 C 
ATOM     39  O   UNK A   1     -14.651  14.555   3.831  1.00  0.00    -0.270 OA
ATOM     40  N   UNK A   1     -13.361  22.913  -4.330  1.00  0.00    -0.235 N 
ATOM     41  C   UNK A   1     -14.824  22.788  -4.789  1.00  0.00    +0.143 C 
ATOM     42  C   UNK A   1     -15.486  21.669  -3.897  1.00  0.00    +0.027 C 
ATOM     43  S   UNK A   1     -16.655  20.448  -4.708  1.00  0.00    -0.140 S 
ATOM     44  C   UNK A   1     -15.557  24.213  -4.579  1.00  0.00    +0.267 C 
ATOM     45  O   UNK A   1     -15.808  24.649  -3.448  1.00  0.00    -0.270 OA
ATOM     46  N   UNK A   1     -12.163  10.945   6.468  1.00  0.00    -0.235 N 
ATOM     47  C   UNK A   1     -11.270   9.886   7.040  1.00  0.00    +0.157 C 
ATOM     48  C   UNK A   1      -9.853  10.449   7.324  1.00  0.00    +0.075 C 
ATOM     49  O   UNK A   1      -8.841   9.420   7.203  1.00  0.00    -0.394 OA
ATOM     50  C   UNK A   1     -11.799   9.138   8.300  1.00  0.00    +0.269 C 
ATOM     51  O   UNK A   1     -11.762   7.904   8.374  1.00  0.00    -0.270 OA
ATOM     52  N   UNK A   1     -15.045  12.904   2.330  1.00  0.00    -0.236 N 
ATOM     53  C   UNK A   1     -15.009  13.163   0.842  1.00  0.00    +0.140 C 
ATOM     54  C   UNK A   1     -14.873  11.775   0.104  1.00  0.00    +0.023 C 
ATOM     55  C   UNK A   1     -16.134  10.935   0.033  1.00  0.00    +0.061 C 
ATOM     56  C   UNK A   1     -17.169  10.900   0.952  1.00  0.00    +0.024 C 
ATOM     57  N   UNK A   1     -18.214  10.372   0.275  1.00  0.00    -0.351 N 
ATOM     58  C   UNK A   1     -17.750   9.893  -0.911  1.00  0.00    +0.092 C 
ATOM     59  N   UNK A   1     -16.469  10.137  -1.067  1.00  0.00    -0.242 N 
ATOM     60  C   UNK A   1     -16.262  13.942   0.256  1.00  0.00    +0.267 C 
ATOM     61  O   UNK A   1     -17.380  13.964   0.786  1.00  0.00    -0.270 OA
ATOM     62  N   UNK A   1     -15.898  24.862  -5.737  1.00  0.00    -0.236 N 
ATOM     63  C   UNK A   1     -15.808  26.369  -5.633  1.00  0.00    +0.136 C 
ATOM     64  C   UNK A   1     -14.337  26.883  -5.827  1.00  0.00    -0.015 C 
ATOM     65  C   UNK A   1     -13.546  26.135  -6.909  1.00  0.00    -0.060 C 
ATOM     66  C   UNK A   1     -13.545  26.892  -4.514  1.00  0.00    -0.060 C 
ATOM     67  C   UNK A   1     -16.721  27.131  -6.673  1.00  0.00    +0.266 C 
ATOM     68  O   UNK A   1     -16.347  27.450  -7.803  1.00  0.00    -0.270 OA
ATOM     69  N   UNK A   1     -12.144   9.887   9.362  1.00  0.00    -0.234 N 
ATOM     70  C   UNK A   1     -13.390   9.476  10.072  1.00  0.00    +0.155 C 
ATOM     71  C   UNK A   1     -14.521   8.988   9.136  1.00  0.00    +0.006 C 
ATOM     72  C   UNK A   1     -15.907   9.462   9.533  1.00  0.00    -0.045 C 
ATOM     73  C   UNK A   1     -16.647   8.823  10.532  1.00  0.00    -0.059 C 
ATOM     74  C   UNK A   1     -17.930   9.268  10.853  1.00  0.00    -0.062 C 
ATOM     75  C   UNK A   1     -18.487  10.358  10.183  1.00  0.00    -0.062 C 
ATOM     76  C   UNK A   1     -17.751  11.012   9.198  1.00  0.00    -0.062 C 
ATOM     77  C   UNK A   1     -16.464  10.573   8.885  1.00  0.00    -0.059 C 
ATOM     78  C   UNK A   1     -13.128   8.435  11.160  1.00  0.00    +0.328 C 
ATOM     79  O   UNK A   1     -13.797   8.299  12.185  1.00  0.00    -0.250 OA
ATOM     80  O   UNK A   1     -12.103   7.585  10.899  1.00  0.00    -0.480 OA
ATOM     81  N   UNK A   1     -16.053  14.397  -1.003  1.00  0.00    -0.233 N 
ATOM     82  C   UNK A   1     -16.994  15.427  -1.561  1.00  0.00    +0.160 C 
ATOM     83  C   UNK A   1     -16.220  16.336  -2.593  1.00  0.00    +0.028 C 
ATOM     84  S   UNK A   1     -17.172  17.852  -3.163  1.00  0.00    -0.140 S 
ATOM     85  C   UNK A   1     -18.194  14.694  -2.207  1.00  0.00    +0.329 C 
ATOM     86  O   UNK A   1     -18.714  14.913  -3.299  1.00  0.00    -0.250 OA
ATOM     87  O   UNK A   1     -18.756  13.751  -1.387  1.00  0.00    -0.480 OA
ATOM     88  N   UNK A   1     -17.916  27.528  -6.189  1.00  0.00    -0.238 N 
ATOM     89  C   UNK A   1     -18.796  26.407  -5.843  1.00  0.00    +0.140 C 
ATOM     90  C   UNK A   1     -19.163  25.544  -7.033  1.00  0.00    +0.325 C 
ATOM     91  O   UNK A   1     -20.243  25.635  -7.626  1.00  0.00    -0.250 OA
ATOM     92  O   UNK A   1     -18.225  24.642  -7.387  1.00  0.00    -0.480 OA
ATOM     93  C   UNK A   1     -15.202  16.670  -7.397  1.00  0.00    -0.059 C 
ATOM     94  C   UNK A   1     -13.876  17.043  -7.655  1.00  0.00    -0.058 C 
ATOM     95  C   UNK A   1     -13.235  17.965  -6.835  1.00  0.00    -0.038 C 
ATOM     96  C   UNK A   1     -11.847  18.536  -7.109  1.00  0.00    +0.019 C 
ATOM     97  C   UNK A   1     -13.977  18.475  -5.756  1.00  0.00    -0.053 C 
ATOM     98  C   UNK A   1     -15.302  18.091  -5.425  1.00  0.00    -0.022 C 
ATOM     99  C   UNK A   1     -15.864  18.784  -4.167  1.00  0.00    +0.076 C 
ATOM    100  C   UNK A   1     -15.941  17.209  -6.317  1.00  0.00    -0.046 C 
ATOM    101  C   UNK A   1     -17.373  16.784  -6.181  1.00  0.00    -0.039 C 
ATOM    102  H   UNK A   1      -5.367  15.945  -7.490  1.00  0.00    +0.060 HD
ATOM    103  H   UNK A   1      -3.403  16.174  -5.792  1.00  0.00    +0.025 HD
ATOM    104  H   UNK A   1      -5.012  16.056  -5.095  1.00  0.00    +0.025 HD
ATOM    105  H   UNK A   1      -4.214  17.634  -5.185  1.00  0.00    +0.025 HD
ATOM    106  H   UNK A   1      -8.450  19.020  -6.159  1.00  0.00    +0.067 HD
ATOM    107  H   UNK A   1     -10.329  17.416  -5.236  1.00  0.00    +0.041 HD
ATOM    108  H   UNK A   1      -9.423  16.095  -5.920  1.00  0.00    +0.041 HD
ATOM    109  H   UNK A   1      -9.934  17.484  -3.065  1.00  0.00    +0.066 HD
ATOM    110  H   UNK A   1      -8.807  19.291  -0.925  1.00  0.00    +0.040 HD
ATOM    111  H   UNK A   1     -10.493  18.888  -0.857  1.00  0.00    +0.040 HD
ATOM    112  H   UNK A   1      -9.210  15.399   1.631  1.00  0.00    +0.066 HD
ATOM    113  H   UNK A   1     -10.350  16.445   3.612  1.00  0.00    +0.030 HD
ATOM    114  H   UNK A   1      -9.382  17.483   2.606  1.00  0.00    +0.030 HD
ATOM    115  H   UNK A   1     -11.071  18.931   2.827  1.00  0.00    +0.037 HD
ATOM    116  H   UNK A   1     -11.790  18.104   1.464  1.00  0.00    +0.037 HD
ATOM    117  H   UNK A   1     -13.139  16.157   2.098  1.00  0.00    +0.159 HD
ATOM    118  H   UNK A   1     -14.077  16.202   3.433  1.00  0.00    +0.159 HD
ATOM    119  H   UNK A   1     -11.038  22.810  -3.565  1.00  0.00    +0.065 HD
ATOM    120  H   UNK A   1     -10.226  22.780  -5.880  1.00  0.00    +0.026 HD
ATOM    121  H   UNK A   1      -9.036  22.096  -4.757  1.00  0.00    +0.026 HD
ATOM    122  H   UNK A   1      -9.995  21.024  -5.793  1.00  0.00    +0.026 HD
ATOM    123  H   UNK A   1     -12.501  12.334   2.526  1.00  0.00    +0.066 HD
ATOM    124  H   UNK A   1     -13.443  12.760   5.239  1.00  0.00    +0.040 HD
ATOM    125  H   UNK A   1     -11.807  13.401   5.235  1.00  0.00    +0.040 HD
ATOM    126  H   UNK A   1     -14.901  22.520  -5.849  1.00  0.00    +0.067 HD
ATOM    127  H   UNK A   1     -14.716  21.080  -3.386  1.00  0.00    +0.041 HD
ATOM    128  H   UNK A   1     -16.078  22.137  -3.101  1.00  0.00    +0.041 HD
ATOM    129  H   UNK A   1     -11.189   9.070   6.303  1.00  0.00    +0.068 HD
ATOM    130  H   UNK A   1      -9.576  11.226   6.602  1.00  0.00    +0.059 HD
ATOM    131  H   UNK A   1      -9.774  10.885   8.325  1.00  0.00    +0.059 HD
ATOM    132  H   UNK A   1      -9.188   8.918   6.440  1.00  0.00    +0.210 HD
ATOM    133  H   UNK A   1     -14.113  13.748   0.580  1.00  0.00    +0.066 HD
ATOM    134  H   UNK A   1     -14.542  11.958  -0.926  1.00  0.00    +0.036 HD
ATOM    135  H   UNK A   1     -14.087  11.180   0.586  1.00  0.00    +0.036 HD
ATOM    136  H   UNK A   1     -17.263  11.436   1.890  1.00  0.00    +0.084 HD
ATOM    137  H   UNK A   1     -19.174  10.449   0.571  1.00  0.00    +0.167 HD
ATOM    138  H   UNK A   1     -18.386   9.413  -1.637  1.00  0.00    +0.104 HD
ATOM    139  H   UNK A   1     -16.138  26.728  -4.647  1.00  0.00    +0.066 HD
ATOM    140  H   UNK A   1     -14.392  27.935  -6.143  1.00  0.00    +0.032 HD
ATOM    141  H   UNK A   1     -13.298  25.114  -6.604  1.00  0.00    +0.023 HD
ATOM    142  H   UNK A   1     -12.600  26.651  -7.113  1.00  0.00    +0.023 HD
ATOM    143  H   UNK A   1     -14.099  26.087  -7.852  1.00  0.00    +0.023 HD
ATOM    144  H   UNK A   1     -14.073  27.468  -3.747  1.00  0.00    +0.023 HD
ATOM    145  H   UNK A   1     -12.565  27.362  -4.662  1.00  0.00    +0.023 HD
ATOM    146  H   UNK A   1     -13.374  25.885  -4.129  1.00  0.00    +0.023 HD
ATOM    147  H   UNK A   1     -13.734  10.368  10.621  1.00  0.00    +0.068 HD
ATOM    148  H   UNK A   1     -14.356   9.323   8.104  1.00  0.00    +0.034 HD
ATOM    149  H   UNK A   1     -14.539   7.891   9.083  1.00  0.00    +0.034 HD
ATOM    150  H   UNK A   1     -16.209   7.980  11.060  1.00  0.00    +0.063 HD
ATOM    151  H   UNK A   1     -18.492   8.749  11.620  1.00  0.00    +0.062 HD
ATOM    152  H   UNK A   1     -19.484  10.704  10.433  1.00  0.00    +0.062 HD
ATOM    153  H   UNK A   1     -18.155  11.859   8.654  1.00  0.00    +0.062 HD
ATOM    154  H   UNK A   1     -15.888  11.093   8.109  1.00  0.00    +0.063 HD
ATOM    155  H   UNK A   1     -11.792   7.873   9.989  1.00  0.00    +0.296 HD
ATOM    156  H   UNK A   1     -17.394  16.084  -0.777  1.00  0.00    +0.068 HD
ATOM    157  H   UNK A   1     -15.290  16.705  -2.141  1.00  0.00    +0.041 HD
ATOM    158  H   UNK A   1     -15.969  15.758  -3.487  1.00  0.00    +0.041 HD
ATOM    159  H   UNK A   1     -18.139  13.746  -0.596  1.00  0.00    +0.296 HD
ATOM    160  H   UNK A   1     -18.423  25.762  -5.038  1.00  0.00    +0.064 HD
ATOM    161  H   UNK A   1     -19.745  26.797  -5.454  1.00  0.00    +0.064 HD
ATOM    162  H   UNK A   1     -17.405  24.713  -6.794  1.00  0.00    +0.296 HD
ATOM    163  H   UNK A   1     -15.670  15.947  -8.055  1.00  0.00    +0.063 HD
ATOM    164  H   UNK A   1     -13.344  16.615  -8.498  1.00  0.00    +0.063 HD
ATOM    165  H   UNK A   1     -11.452  19.109  -6.270  1.00  0.00    +0.043 HD
ATOM    166  H   UNK A   1     -11.956  19.248  -7.937  1.00  0.00    +0.043 HD
ATOM    167  H   UNK A   1     -13.503  19.239  -5.132  1.00  0.00    +0.063 HD
ATOM    168  H   UNK A   1     -15.061  18.988  -3.453  1.00  0.00    +0.058 HD
ATOM    169  H   UNK A   1     -17.461  15.949  -5.483  1.00  0.00    +0.028 HD
ATOM    170  H   UNK A   1     -18.012  17.616  -5.879  1.00  0.00    +0.028 HD
ATOM    171  H   UNK A   1     -17.765  16.450  -7.146  1.00  0.00    +0.028 HD
ENDROOT
TORSDOF 0
ENDMDL
MODEL 3
REMARK VINA RESULT:       3.3      3.106      4.067
REMARK  Generated by RDKit with Gasteiger charges
REMARK  --------------------------------------------------
ROOT
ATOM      1  N   UNK A   1      -4.209  14.019  -7.834  1.00  0.00    -0.131 N 
ATOM      2  C   UNK A   1      -5.397  13.957  -6.946  1.00  0.00    +0.121 C 
ATOM      3  C   UNK A   1      -4.916  13.569  -5.556  1.00  0.00    -0.037 C 
ATOM      4  C   UNK A   1      -6.122  15.316  -6.973  1.00  0.00    +0.262 C 
ATOM      5  O   UNK A   1      -5.514  16.363  -7.219  1.00  0.00    -0.271 OA
ATOM      6  N   UNK A   1      -7.435  15.111  -6.828  1.00  0.00    -0.236 N 
ATOM      7  C   UNK A   1      -8.200  16.039  -5.891  1.00  0.00    +0.143 C 
ATOM      8  C   UNK A   1      -9.727  15.721  -6.054  1.00  0.00    +0.025 C 
ATOM      9  S   UNK A   1     -10.517  16.151  -7.695  1.00  0.00    -0.154 S 
ATOM     10  C   UNK A   1      -7.857  15.779  -4.358  1.00  0.00    +0.267 C 
ATOM     11  O   UNK A   1      -7.386  14.693  -4.000  1.00  0.00    -0.270 OA
ATOM     12  N   UNK A   1      -8.003  16.857  -3.543  1.00  0.00    -0.235 N 
ATOM     13  C   UNK A   1      -9.360  16.992  -2.825  1.00  0.00    +0.143 C 
ATOM     14  C   UNK A   1      -9.347  17.000  -1.231  1.00  0.00    +0.060 C 
ATOM     15  C   UNK A   1      -9.469  15.709  -0.253  1.00  0.00    +0.244 C 
ATOM     16  O   UNK A   1      -8.432  15.220   0.226  1.00  0.00    -0.273 OA
ATOM     17  C   UNK A   1     -10.133  18.311  -3.404  1.00  0.00    +0.267 C 
ATOM     18  O   UNK A   1     -11.209  18.129  -3.973  1.00  0.00    -0.270 OA
ATOM     19  N   UNK A   1     -10.745  15.348   0.080  1.00  0.00    -0.238 N 
ATOM     20  C   UNK A   1     -10.958  14.708   1.463  1.00  0.00    +0.135 C 
ATOM     21  C   UNK A   1     -10.745  15.776   2.576  1.00  0.00    -0.013 C 
ATOM     22  C   UNK A   1     -11.468  17.121   2.413  1.00  0.00    +0.029 C 
ATOM     23  C   UNK A   1     -12.722  17.217   3.253  1.00  0.00    +0.217 C 
ATOM     24  O   UNK A   1     -12.754  17.770   4.360  1.00  0.00    -0.275 OA
ATOM     25  N   UNK A   1     -13.827  16.705   2.648  1.00  0.00    -0.370 N 
ATOM     26  C   UNK A   1     -12.258  13.723   1.639  1.00  0.00    +0.266 C 
ATOM     27  O   UNK A   1     -12.449  12.818   0.822  1.00  0.00    -0.270 OA
ATOM     28  N   UNK A   1      -9.609  19.534  -3.129  1.00  0.00    -0.236 N 
ATOM     29  C   UNK A   1      -9.684  20.652  -4.156  1.00  0.00    +0.131 C 
ATOM     30  C   UNK A   1      -8.585  20.377  -5.210  1.00  0.00    -0.033 C 
ATOM     31  C   UNK A   1     -10.937  21.213  -4.953  1.00  0.00    +0.266 C 
ATOM     32  O   UNK A   1     -11.255  20.739  -6.049  1.00  0.00    -0.270 OA
ATOM     33  N   UNK A   1     -12.945  13.884   2.809  1.00  0.00    -0.235 N 
ATOM     34  C   UNK A   1     -14.204  13.004   3.065  1.00  0.00    +0.143 C 
ATOM     35  C   UNK A   1     -14.213  12.480   4.603  1.00  0.00    +0.060 C 
ATOM     36  C   UNK A   1     -14.164  10.940   5.031  1.00  0.00    +0.244 C 
ATOM     37  O   UNK A   1     -13.758  10.042   4.290  1.00  0.00    -0.273 OA
ATOM     38  C   UNK A   1     -15.494  13.958   2.903  1.00  0.00    +0.267 C 
ATOM     39  O   UNK A   1     -15.641  14.950   3.633  1.00  0.00    -0.270 OA
ATOM     40  N   UNK A   1     -11.450  22.378  -4.454  1.00  0.00    -0.235 N 
ATOM     41  C   UNK A   1     -12.860  22.729  -4.962  1.00  0.00    +0.143 C 
ATOM     42  C   UNK A   1     -13.877  21.891  -4.096  1.00  0.00    +0.027 C 
ATOM     43  S   UNK A   1     -15.351  21.107  -4.950  1.00  0.00    -0.140 S 
ATOM     44  C   UNK A   1     -13.099  24.316  -4.772  1.00  0.00    +0.267 C 
ATOM     45  O   UNK A   1     -13.232  24.819  -3.649  1.00  0.00    -0.270 OA
ATOM     46  N   UNK A   1     -14.542  10.750   6.340  1.00  0.00    -0.235 N 
ATOM     47  C   UNK A   1     -14.058   9.464   6.938  1.00  0.00    +0.157 C 
ATOM     48  C   UNK A   1     -12.546   9.540   7.271  1.00  0.00    +0.075 C 
ATOM     49  O   UNK A   1     -11.918   8.239   7.181  1.00  0.00    -0.394 OA
ATOM     50  C   UNK A   1     -14.842   8.937   8.177  1.00  0.00    +0.269 C 
ATOM     51  O   UNK A   1     -15.208   7.758   8.249  1.00  0.00    -0.270 OA
ATOM     52  N   UNK A   1     -16.498  13.503   2.114  1.00  0.00    -0.236 N 
ATOM     53  C   UNK A   1     -16.332  13.725   0.629  1.00  0.00    +0.140 C 
ATOM     54  C   UNK A   1     -16.627  12.362  -0.108  1.00  0.00    +0.023 C 
ATOM     55  C   UNK A   1     -18.090  11.975  -0.224  1.00  0.00    +0.061 C 
ATOM     56  C   UNK A   1     -19.109  12.283   0.659  1.00  0.00    +0.024 C 
ATOM     57  N   UNK A   1     -20.247  12.116  -0.055  1.00  0.00    -0.351 N 
ATOM     58  C   UNK A   1     -19.923  11.504  -1.226  1.00  0.00    +0.092 C 
ATOM     59  N   UNK A   1     -18.628  11.319  -1.338  1.00  0.00    -0.242 N 
ATOM     60  C   UNK A   1     -17.245  14.863   0.004  1.00  0.00    +0.267 C 
ATOM     61  O   UNK A   1     -18.313  15.249   0.495  1.00  0.00    -0.270 OA
ATOM     62  N   UNK A   1     -13.173  25.031  -5.939  1.00  0.00    -0.236 N 
ATOM     63  C   UNK A   1     -12.604  26.429  -5.827  1.00  0.00    +0.136 C 
ATOM     64  C   UNK A   1     -11.041  26.438  -5.970  1.00  0.00    -0.015 C 
ATOM     65  C   UNK A   1     -10.499  25.466  -7.027  1.00  0.00    -0.060 C 
ATOM     66  C   UNK A   1     -10.332  26.201  -4.632  1.00  0.00    -0.060 C 
ATOM     67  C   UNK A   1     -13.187  27.437  -6.894  1.00  0.00    +0.266 C 
ATOM     68  O   UNK A   1     -12.694  27.609  -8.011  1.00  0.00    -0.270 OA
ATOM     69  N   UNK A   1     -14.961   9.766   9.230  1.00  0.00    -0.234 N 
ATOM     70  C   UNK A   1     -16.296   9.785   9.896  1.00  0.00    +0.155 C 
ATOM     71  C   UNK A   1     -17.492   9.682   8.921  1.00  0.00    +0.006 C 
ATOM     72  C   UNK A   1     -18.662  10.581   9.273  1.00  0.00    -0.045 C 
ATOM     73  C   UNK A   1     -19.601  10.223  10.245  1.00  0.00    -0.059 C 
ATOM     74  C   UNK A   1     -20.682  11.062  10.523  1.00  0.00    -0.062 C 
ATOM     75  C   UNK A   1     -20.834  12.268   9.839  1.00  0.00    -0.062 C 
ATOM     76  C   UNK A   1     -19.894  12.642   8.882  1.00  0.00    -0.062 C 
ATOM     77  C   UNK A   1     -18.809  11.807   8.610  1.00  0.00    -0.059 C 
ATOM     78  C   UNK A   1     -16.420   8.724  10.989  1.00  0.00    +0.328 C 
ATOM     79  O   UNK A   1     -17.130   8.819  11.991  1.00  0.00    -0.250 OA
ATOM     80  O   UNK A   1     -15.716   7.586  10.760  1.00  0.00    -0.480 OA
ATOM     81  N   UNK A   1     -16.859  15.216  -1.246  1.00  0.00    -0.233 N 
ATOM     82  C   UNK A   1     -17.398  16.491  -1.832  1.00  0.00    +0.160 C 
ATOM     83  C   UNK A   1     -16.338  17.092  -2.835  1.00  0.00    +0.028 C 
ATOM     84  S   UNK A   1     -16.729  18.830  -3.431  1.00  0.00    -0.140 S 
ATOM     85  C   UNK A   1     -18.749  16.180  -2.520  1.00  0.00    +0.329 C 
ATOM     86  O   UNK A   1     -19.133  16.547  -3.628  1.00  0.00    -0.250 OA
ATOM     87  O   UNK A   1     -19.612  15.476  -1.723  1.00  0.00    -0.480 OA
ATOM     88  N   UNK A   1     -14.205  28.203  -6.450  1.00  0.00    -0.238 N 
ATOM     89  C   UNK A   1     -15.411  27.429  -6.137  1.00  0.00    +0.140 C 
ATOM     90  C   UNK A   1     -15.998  26.723  -7.341  1.00  0.00    +0.325 C 
ATOM     91  O   UNK A   1     -16.970  27.153  -7.970  1.00  0.00    -0.250 OA
ATOM     92  O   UNK A   1     -15.391  25.562  -7.667  1.00  0.00    -0.480 OA
ATOM     93  C   UNK A   1     -15.110  17.042  -7.601  1.00  0.00    -0.059 C 
ATOM     94  C   UNK A   1     -13.726  16.964  -7.813  1.00  0.00    -0.058 C 
ATOM     95  C   UNK A   1     -12.849  17.636  -6.969  1.00  0.00    -0.038 C 
ATOM     96  C   UNK A   1     -11.343  17.725  -7.195  1.00  0.00    +0.019 C 
ATOM     97  C   UNK A   1     -13.421  18.366  -5.913  1.00  0.00    -0.053 C 
ATOM     98  C   UNK A   1     -14.810  18.434  -5.628  1.00  0.00    -0.022 C 
ATOM     99  C   UNK A   1     -15.158  19.281  -4.388  1.00  0.00    +0.076 C 
ATOM    100  C   UNK A   1     -15.670  17.799  -6.544  1.00  0.00    -0.046 C 
ATOM    101  C   UNK A   1     -17.166  17.861  -6.458  1.00  0.00    -0.039 C 
ATOM    102  H   UNK A   1      -6.041  13.175  -7.366  1.00  0.00    +0.060 HD
ATOM    103  H   UNK A   1      -4.165  12.770  -5.603  1.00  0.00    +0.025 HD
ATOM    104  H   UNK A   1      -5.747  13.184  -4.960  1.00  0.00    +0.025 HD
ATOM    105  H   UNK A   1      -4.480  14.418  -5.018  1.00  0.00    +0.025 HD
ATOM    106  H   UNK A   1      -8.005  17.092  -6.129  1.00  0.00    +0.067 HD
ATOM    107  H   UNK A   1     -10.331  16.189  -5.276  1.00  0.00    +0.041 HD
ATOM    108  H   UNK A   1      -9.879  14.640  -5.933  1.00  0.00    +0.041 HD
ATOM    109  H   UNK A   1     -10.006  16.142  -3.092  1.00  0.00    +0.066 HD
ATOM    110  H   UNK A   1      -8.426  17.505  -0.910  1.00  0.00    +0.040 HD
ATOM    111  H   UNK A   1     -10.154  17.669  -0.899  1.00  0.00    +0.040 HD
ATOM    112  H   UNK A   1     -10.150  13.972   1.619  1.00  0.00    +0.066 HD
ATOM    113  H   UNK A   1     -10.955  15.347   3.564  1.00  0.00    +0.030 HD
ATOM    114  H   UNK A   1      -9.671  16.008   2.594  1.00  0.00    +0.030 HD
ATOM    115  H   UNK A   1     -10.807  17.925   2.763  1.00  0.00    +0.037 HD
ATOM    116  H   UNK A   1     -11.710  17.364   1.374  1.00  0.00    +0.037 HD
ATOM    117  H   UNK A   1     -13.637  15.963   1.957  1.00  0.00    +0.159 HD
ATOM    118  H   UNK A   1     -14.553  16.320   3.259  1.00  0.00    +0.159 HD
ATOM    119  H   UNK A   1      -9.312  21.536  -3.612  1.00  0.00    +0.065 HD
ATOM    120  H   UNK A   1      -8.478  21.227  -5.899  1.00  0.00    +0.026 HD
ATOM    121  H   UNK A   1      -7.610  20.203  -4.738  1.00  0.00    +0.026 HD
ATOM    122  H   UNK A   1      -8.830  19.490  -5.809  1.00  0.00    +0.026 HD
ATOM    123  H   UNK A   1     -14.283  12.143   2.394  1.00  0.00    +0.066 HD
ATOM    124  H   UNK A   1     -15.125  12.872   5.075  1.00  0.00    +0.040 HD
ATOM    125  H   UNK A   1     -13.370  12.949   5.127  1.00  0.00    +0.040 HD
ATOM    126  H   UNK A   1     -12.985  22.492  -6.025  1.00  0.00    +0.067 HD
ATOM    127  H   UNK A   1     -13.356  21.089  -3.562  1.00  0.00    +0.041 HD
ATOM    128  H   UNK A   1     -14.311  22.531  -3.319  1.00  0.00    +0.041 HD
ATOM    129  H   UNK A   1     -14.222   8.660   6.202  1.00  0.00    +0.068 HD
ATOM    130  H   UNK A   1     -12.009  10.180   6.561  1.00  0.00    +0.059 HD
ATOM    131  H   UNK A   1     -12.363   9.936   8.276  1.00  0.00    +0.059 HD
ATOM    132  H   UNK A   1     -12.383   7.870   6.405  1.00  0.00    +0.210 HD
ATOM    133  H   UNK A   1     -15.286  13.987   0.399  1.00  0.00    +0.066 HD
ATOM    134  H   UNK A   1     -16.222  12.420  -1.126  1.00  0.00    +0.036 HD
ATOM    135  H   UNK A   1     -16.093  11.549   0.398  1.00  0.00    +0.036 HD
ATOM    136  H   UNK A   1     -19.056  12.828   1.595  1.00  0.00    +0.084 HD
ATOM    137  H   UNK A   1     -21.139  12.502   0.210  1.00  0.00    +0.167 HD
ATOM    138  H   UNK A   1     -20.657  11.249  -1.974  1.00  0.00    +0.104 HD
ATOM    139  H   UNK A   1     -12.832  26.883  -4.851  1.00  0.00    +0.066 HD
ATOM    140  H   UNK A   1     -10.742  27.449  -6.285  1.00  0.00    +0.032 HD
ATOM    141  H   UNK A   1     -10.605  24.422  -6.718  1.00  0.00    +0.023 HD
ATOM    142  H   UNK A   1      -9.431  25.647  -7.198  1.00  0.00    +0.023 HD
ATOM    143  H   UNK A   1     -11.007  25.592  -7.988  1.00  0.00    +0.023 HD
ATOM    144  H   UNK A   1     -10.670  26.923  -3.880  1.00  0.00    +0.023 HD
ATOM    145  H   UNK A   1      -9.248  26.328  -4.745  1.00  0.00    +0.023 HD
ATOM    146  H   UNK A   1     -10.509  25.195  -4.244  1.00  0.00    +0.023 HD
ATOM    147  H   UNK A   1     -16.350  10.744  10.436  1.00  0.00    +0.068 HD
ATOM    148  H   UNK A   1     -17.194   9.937   7.897  1.00  0.00    +0.034 HD
ATOM    149  H   UNK A   1     -17.863   8.649   8.864  1.00  0.00    +0.034 HD
ATOM    150  H   UNK A   1     -19.478   9.289  10.784  1.00  0.00    +0.063 HD
ATOM    151  H   UNK A   1     -21.406  10.759  11.270  1.00  0.00    +0.062 HD
ATOM    152  H   UNK A   1     -21.673  12.920  10.056  1.00  0.00    +0.062 HD
ATOM    153  H   UNK A   1     -19.984  13.570   8.327  1.00  0.00    +0.062 HD
ATOM    154  H   UNK A   1     -18.070  12.107   7.856  1.00  0.00    +0.063 HD
ATOM    155  H   UNK A   1     -15.299   7.751   9.861  1.00  0.00    +0.296 HD
ATOM    156  H   UNK A   1     -17.590  17.248  -1.060  1.00  0.00    +0.068 HD
ATOM    157  H   UNK A   1     -15.354  17.144  -2.351  1.00  0.00    +0.041 HD
ATOM    158  H   UNK A   1     -16.258  16.457  -3.722  1.00  0.00    +0.041 HD
ATOM    159  H   UNK A   1     -19.056  15.277  -0.911  1.00  0.00    +0.296 HD
ATOM    160  H   UNK A   1     -15.293  26.705  -5.322  1.00  0.00    +0.064 HD
ATOM    161  H   UNK A   1     -16.195  28.109  -5.779  1.00  0.00    +0.064 HD
ATOM    162  H   UNK A   1     -14.612  25.369  -7.047  1.00  0.00    +0.296 HD
ATOM    163  H   UNK A   1     -15.764  16.504  -8.277  1.00  0.00    +0.063 HD
ATOM    164  H   UNK A   1     -13.335  16.380  -8.639  1.00  0.00    +0.063 HD
ATOM    165  H   UNK A   1     -10.812  18.146  -6.341  1.00  0.00    +0.043 HD
ATOM    166  H   UNK A   1     -11.189  18.428  -8.023  1.00  0.00    +0.043 HD
ATOM    167  H   UNK A   1     -12.746  18.941  -5.272  1.00  0.00    +0.063 HD
ATOM    168  H   UNK A   1     -14.356  19.220  -3.647  1.00  0.00    +0.058 HD
ATOM    169  H   UNK A   1     -17.542  17.105  -5.766  1.00  0.00    +0.028 HD
ATOM    170  H   UNK A   1     -17.512  18.857  -6.175  1.00  0.00    +0.028 HD
ATOM    171  H   UNK A   1     -17.613  17.664  -7.437  1.00  0.00    +0.028 HD
ENDROOT
TORSDOF 0
ENDMDL
MODEL 4
REMARK VINA RESULT:       3.3      3.901      5.419
REMARK  Generated by RDKit with Gasteiger charges
REMARK  --------------------------------------------------
ROOT
ATOM      1  N   UNK A   1      -5.340  11.960  -7.998  1.00  0.00    -0.131 N 
ATOM      2  C   UNK A   1      -6.528  12.128  -7.125  1.00  0.00    +0.121 C 
ATOM      3  C   UNK A   1      -6.161  11.619  -5.740  1.00  0.00    -0.037 C 
ATOM      4  C   UNK A   1      -6.955  13.609  -7.127  1.00  0.00    +0.262 C 
ATOM      5  O   UNK A   1      -6.138  14.511  -7.341  1.00  0.00    -0.271 OA
ATOM      6  N   UNK A   1      -8.283  13.678  -7.002  1.00  0.00    -0.236 N 
ATOM      7  C   UNK A   1      -8.853  14.725  -6.051  1.00  0.00    +0.143 C 
ATOM      8  C   UNK A   1     -10.410  14.737  -6.238  1.00  0.00    +0.025 C 
ATOM      9  S   UNK A   1     -11.067  15.356  -7.877  1.00  0.00    -0.154 S 
ATOM     10  C   UNK A   1      -8.596  14.368  -4.522  1.00  0.00    +0.267 C 
ATOM     11  O   UNK A   1      -8.367  13.200  -4.184  1.00  0.00    -0.270 OA
ATOM     12  N   UNK A   1      -8.526  15.435  -3.683  1.00  0.00    -0.235 N 
ATOM     13  C   UNK A   1      -9.838  15.834  -2.976  1.00  0.00    +0.143 C 
ATOM     14  C   UNK A   1      -9.848  15.806  -1.383  1.00  0.00    +0.060 C 
ATOM     15  C   UNK A   1     -10.251  14.548  -0.438  1.00  0.00    +0.244 C 
ATOM     16  O   UNK A   1      -9.346  13.844   0.041  1.00  0.00    -0.273 OA
ATOM     17  C   UNK A   1     -10.309  17.298  -3.532  1.00  0.00    +0.267 C 
ATOM     18  O   UNK A   1     -11.391  17.356  -4.117  1.00  0.00    -0.270 OA
ATOM     19  N   UNK A   1     -11.579  14.455  -0.127  1.00  0.00    -0.238 N 
ATOM     20  C   UNK A   1     -11.942  13.844   1.238  1.00  0.00    +0.135 C 
ATOM     21  C   UNK A   1     -11.530  14.821   2.378  1.00  0.00    -0.013 C 
ATOM     22  C   UNK A   1     -11.954  16.290   2.240  1.00  0.00    +0.029 C 
ATOM     23  C   UNK A   1     -13.173  16.627   3.068  1.00  0.00    +0.217 C 
ATOM     24  O   UNK A   1     -13.108  17.152   4.188  1.00  0.00    -0.275 OA
ATOM     25  N   UNK A   1     -14.352  16.369   2.439  1.00  0.00    -0.370 N 
ATOM     26  C   UNK A   1     -13.422  13.148   1.376  1.00  0.00    +0.266 C 
ATOM     27  O   UNK A   1     -13.784  12.320   0.536  1.00  0.00    -0.270 OA
ATOM     28  N   UNK A   1      -9.547  18.378  -3.223  1.00  0.00    -0.236 N 
ATOM     29  C   UNK A   1      -9.372  19.509  -4.223  1.00  0.00    +0.131 C 
ATOM     30  C   UNK A   1      -8.337  19.033  -5.272  1.00  0.00    -0.033 C 
ATOM     31  C   UNK A   1     -10.468  20.335  -5.020  1.00  0.00    +0.266 C 
ATOM     32  O   UNK A   1     -10.860  19.961  -6.130  1.00  0.00    -0.270 OA
ATOM     33  N   UNK A   1     -14.078  13.424   2.542  1.00  0.00    -0.235 N 
ATOM     34  C   UNK A   1     -15.497  12.820   2.764  1.00  0.00    +0.143 C 
ATOM     35  C   UNK A   1     -15.639  12.278   4.288  1.00  0.00    +0.060 C 
ATOM     36  C   UNK A   1     -15.918  10.753   4.679  1.00  0.00    +0.244 C 
ATOM     37  O   UNK A   1     -15.696   9.806   3.922  1.00  0.00    -0.273 OA
ATOM     38  C   UNK A   1     -16.558  14.025   2.610  1.00  0.00    +0.267 C 
ATOM     39  O   UNK A   1     -16.506  15.011   3.362  1.00  0.00    -0.270 OA
ATOM     40  N   UNK A   1     -10.735  21.571  -4.499  1.00  0.00    -0.235 N 
ATOM     41  C   UNK A   1     -12.032  22.219  -5.014  1.00  0.00    +0.143 C 
ATOM     42  C   UNK A   1     -13.215  21.593  -4.180  1.00  0.00    +0.027 C 
ATOM     43  S   UNK A   1     -14.806  21.152  -5.068  1.00  0.00    -0.140 S 
ATOM     44  C   UNK A   1     -11.939  23.816  -4.789  1.00  0.00    +0.267 C 
ATOM     45  O   UNK A   1     -11.982  24.312  -3.656  1.00  0.00    -0.270 OA
ATOM     46  N   UNK A   1     -16.348  10.618   5.980  1.00  0.00    -0.235 N 
ATOM     47  C   UNK A   1     -16.152   9.247   6.552  1.00  0.00    +0.157 C 
ATOM     48  C   UNK A   1     -14.662   9.000   6.904  1.00  0.00    +0.075 C 
ATOM     49  O   UNK A   1     -14.317   7.598   6.790  1.00  0.00    -0.394 OA
ATOM     50  C   UNK A   1     -17.048   8.869   7.769  1.00  0.00    +0.269 C 
ATOM     51  O   UNK A   1     -17.652   7.791   7.809  1.00  0.00    -0.270 OA
ATOM     52  N   UNK A   1     -17.621  13.807   1.799  1.00  0.00    -0.236 N 
ATOM     53  C   UNK A   1     -17.389  14.021   0.322  1.00  0.00    +0.140 C 
ATOM     54  C   UNK A   1     -17.951  12.765  -0.451  1.00  0.00    +0.023 C 
ATOM     55  C   UNK A   1     -19.460  12.693  -0.592  1.00  0.00    +0.061 C 
ATOM     56  C   UNK A   1     -20.407  13.188   0.287  1.00  0.00    +0.024 C 
ATOM     57  N   UNK A   1     -21.543  13.277  -0.443  1.00  0.00    -0.351 N 
ATOM     58  C   UNK A   1     -21.335  12.636  -1.625  1.00  0.00    +0.092 C 
ATOM     59  N   UNK A   1     -20.105  12.187  -1.727  1.00  0.00    -0.242 N 
ATOM     60  C   UNK A   1     -18.036  15.337  -0.286  1.00  0.00    +0.267 C 
ATOM     61  O   UNK A   1     -19.007  15.926   0.203  1.00  0.00    -0.270 OA
ATOM     62  N   UNK A   1     -11.845  24.556  -5.939  1.00  0.00    -0.236 N 
ATOM     63  C   UNK A   1     -10.999  25.802  -5.788  1.00  0.00    +0.136 C 
ATOM     64  C   UNK A   1      -9.466  25.488  -5.914  1.00  0.00    -0.015 C 
ATOM     65  C   UNK A   1      -9.122  24.446  -6.988  1.00  0.00    -0.060 C 
ATOM     66  C   UNK A   1      -8.843  25.080  -4.573  1.00  0.00    -0.060 C 
ATOM     67  C   UNK A   1     -11.342  26.932  -6.837  1.00  0.00    +0.266 C 
ATOM     68  O   UNK A   1     -10.807  27.020  -7.944  1.00  0.00    -0.270 OA
ATOM     69  N   UNK A   1     -17.008   9.682   8.840  1.00  0.00    -0.234 N 
ATOM     70  C   UNK A   1     -18.320   9.965   9.492  1.00  0.00    +0.155 C 
ATOM     71  C   UNK A   1     -19.496  10.134   8.502  1.00  0.00    +0.006 C 
ATOM     72  C   UNK A   1     -20.459  11.250   8.863  1.00  0.00    -0.045 C 
ATOM     73  C   UNK A   1     -21.467  11.075   9.815  1.00  0.00    -0.059 C 
ATOM     74  C   UNK A   1     -22.353  12.114  10.102  1.00  0.00    -0.062 C 
ATOM     75  C   UNK A   1     -22.240  13.340   9.445  1.00  0.00    -0.062 C 
ATOM     76  C   UNK A   1     -21.228  13.530   8.507  1.00  0.00    -0.062 C 
ATOM     77  C   UNK A   1     -20.336  12.493   8.227  1.00  0.00    -0.059 C 
ATOM     78  C   UNK A   1     -18.679   8.930  10.558  1.00  0.00    +0.328 C 
ATOM     79  O   UNK A   1     -19.369   9.150  11.554  1.00  0.00    -0.250 OA
ATOM     80  O   UNK A   1     -18.224   7.676  10.309  1.00  0.00    -0.480 OA
ATOM     81  N   UNK A   1     -17.566  15.627  -1.522  1.00  0.00    -0.233 N 
ATOM     82  C   UNK A   1     -17.818  16.999  -2.084  1.00  0.00    +0.160 C 
ATOM     83  C   UNK A   1     -16.641  17.387  -3.060  1.00  0.00    +0.028 C 
ATOM     84  S   UNK A   1     -16.652  19.181  -3.619  1.00  0.00    -0.140 S 
ATOM     85  C   UNK A   1     -19.193  16.991  -2.794  1.00  0.00    +0.329 C 
ATOM     86  O   UNK A   1     -19.475  17.453  -3.897  1.00  0.00    -0.250 OA
ATOM     87  O   UNK A   1     -20.196  16.465  -2.023  1.00  0.00    -0.480 OA
ATOM     88  N   UNK A   1     -12.185  27.883  -6.385  1.00  0.00    -0.238 N 
ATOM     89  C   UNK A   1     -13.531  27.371  -6.105  1.00  0.00    +0.140 C 
ATOM     90  C   UNK A   1     -14.233  26.828  -7.332  1.00  0.00    +0.325 C 
ATOM     91  O   UNK A   1     -15.085  27.464  -7.961  1.00  0.00    -0.250 OA
ATOM     92  O   UNK A   1     -13.876  25.573  -7.678  1.00  0.00    -0.480 OA
ATOM     93  C   UNK A   1     -15.375  17.182  -7.813  1.00  0.00    -0.059 C 
ATOM     94  C   UNK A   1     -14.035  16.822  -8.011  1.00  0.00    -0.058 C 
ATOM     95  C   UNK A   1     -13.050  17.279  -7.142  1.00  0.00    -0.038 C 
ATOM     96  C   UNK A   1     -11.555  17.056  -7.349  1.00  0.00    +0.019 C 
ATOM     97  C   UNK A   1     -13.475  18.090  -6.075  1.00  0.00    -0.053 C 
ATOM     98  C   UNK A   1     -14.823  18.440  -5.804  1.00  0.00    -0.022 C 
ATOM     99  C   UNK A   1     -15.007  19.314  -4.548  1.00  0.00    +0.076 C 
ATOM    100  C   UNK A   1     -15.782  18.017  -6.744  1.00  0.00    -0.046 C 
ATOM    101  C   UNK A   1     -17.233  18.388  -6.673  1.00  0.00    -0.039 C 
ATOM    102  H   UNK A   1      -7.314  11.506  -7.571  1.00  0.00    +0.060 HD
ATOM    103  H   UNK A   1      -5.592  10.682  -5.797  1.00  0.00    +0.025 HD
ATOM    104  H   UNK A   1      -7.063  11.403  -5.162  1.00  0.00    +0.025 HD
ATOM    105  H   UNK A   1      -5.566  12.347  -5.177  1.00  0.00    +0.025 HD
ATOM    106  H   UNK A   1      -8.440  15.719  -6.262  1.00  0.00    +0.067 HD
ATOM    107  H   UNK A   1     -10.916  15.303  -5.456  1.00  0.00    +0.041 HD
ATOM    108  H   UNK A   1     -10.785  13.709  -6.145  1.00  0.00    +0.041 HD
ATOM    109  H   UNK A   1     -10.642  15.144  -3.271  1.00  0.00    +0.066 HD
ATOM    110  H   UNK A   1      -8.847  16.101  -1.040  1.00  0.00    +0.040 HD
ATOM    111  H   UNK A   1     -10.503  16.622  -1.044  1.00  0.00    +0.040 HD
ATOM    112  H   UNK A   1     -11.308  12.953   1.386  1.00  0.00    +0.066 HD
ATOM    113  H   UNK A   1     -11.840  14.424   3.353  1.00  0.00    +0.030 HD
ATOM    114  H   UNK A   1     -10.431  14.823   2.414  1.00  0.00    +0.030 HD
ATOM    115  H   UNK A   1     -11.146  16.931   2.617  1.00  0.00    +0.037 HD
ATOM    116  H   UNK A   1     -12.124  16.600   1.204  1.00  0.00    +0.037 HD
ATOM    117  H   UNK A   1     -14.309  15.619   1.732  1.00  0.00    +0.159 HD
ATOM    118  H   UNK A   1     -15.151  16.131   3.033  1.00  0.00    +0.159 HD
ATOM    119  H   UNK A   1      -8.832  20.284  -3.654  1.00  0.00    +0.065 HD
ATOM    120  H   UNK A   1      -8.045  19.856  -5.938  1.00  0.00    +0.026 HD
ATOM    121  H   UNK A   1      -7.428  18.650  -4.793  1.00  0.00    +0.026 HD
ATOM    122  H   UNK A   1      -8.752  18.230  -5.894  1.00  0.00    +0.026 HD
ATOM    123  H   UNK A   1     -15.743  12.009   2.071  1.00  0.00    +0.066 HD
ATOM    124  H   UNK A   1     -16.457  12.841   4.759  1.00  0.00    +0.040 HD
ATOM    125  H   UNK A   1     -14.725  12.550   4.832  1.00  0.00    +0.040 HD
ATOM    126  H   UNK A   1     -12.187  22.035  -6.084  1.00  0.00    +0.067 HD
ATOM    127  H   UNK A   1     -12.881  20.689  -3.659  1.00  0.00    +0.041 HD
ATOM    128  H   UNK A   1     -13.519  22.293  -3.392  1.00  0.00    +0.041 HD
ATOM    129  H   UNK A   1     -16.467   8.511   5.795  1.00  0.00    +0.068 HD
ATOM    130  H   UNK A   1     -13.992   9.529   6.215  1.00  0.00    +0.059 HD
ATOM    131  H   UNK A   1     -14.416   9.327   7.919  1.00  0.00    +0.059 HD
ATOM    132  H   UNK A   1     -14.837   7.351   6.000  1.00  0.00    +0.210 HD
ATOM    133  H   UNK A   1     -16.309  14.063   0.109  1.00  0.00    +0.066 HD
ATOM    134  H   UNK A   1     -17.526  12.758  -1.462  1.00  0.00    +0.036 HD
ATOM    135  H   UNK A   1     -17.605  11.848   0.042  1.00  0.00    +0.036 HD
ATOM    136  H   UNK A   1     -20.256  13.691   1.237  1.00  0.00    +0.084 HD
ATOM    137  H   UNK A   1     -22.339  13.835  -0.179  1.00  0.00    +0.167 HD
ATOM    138  H   UNK A   1     -22.094  12.555  -2.386  1.00  0.00    +0.104 HD
ATOM    139  H   UNK A   1     -11.143  26.273  -4.804  1.00  0.00    +0.066 HD
ATOM    140  H   UNK A   1      -8.958  26.420  -6.200  1.00  0.00    +0.032 HD
ATOM    141  H   UNK A   1      -9.447  23.442  -6.704  1.00  0.00    +0.023 HD
ATOM    142  H   UNK A   1      -8.037  24.405  -7.142  1.00  0.00    +0.023 HD
ATOM    143  H   UNK A   1      -9.577  24.696  -7.951  1.00  0.00    +0.023 HD
ATOM    144  H   UNK A   1      -9.035  25.840  -3.808  1.00  0.00    +0.023 HD
ATOM    145  H   UNK A   1      -7.755  24.980  -4.671  1.00  0.00    +0.023 HD
ATOM    146  H   UNK A   1      -9.231  24.125  -4.211  1.00  0.00    +0.023 HD
ATOM    147  H   UNK A   1     -18.181  10.903  10.054  1.00  0.00    +0.068 HD
ATOM    148  H   UNK A   1     -19.135  10.343   7.488  1.00  0.00    +0.034 HD
ATOM    149  H   UNK A   1     -20.072   9.202   8.417  1.00  0.00    +0.034 HD
ATOM    150  H   UNK A   1     -21.549  10.124  10.333  1.00  0.00    +0.063 HD
ATOM    151  H   UNK A   1     -23.136  11.953  10.833  1.00  0.00    +0.062 HD
ATOM    152  H   UNK A   1     -22.928  14.148   9.668  1.00  0.00    +0.062 HD
ATOM    153  H   UNK A   1     -21.115  14.468   7.974  1.00  0.00    +0.062 HD
ATOM    154  H   UNK A   1     -19.540  12.649   7.489  1.00  0.00    +0.063 HD
ATOM    155  H   UNK A   1     -17.768   7.769   9.420  1.00  0.00    +0.296 HD
ATOM    156  H   UNK A   1     -17.860  17.763  -1.296  1.00  0.00    +0.068 HD
ATOM    157  H   UNK A   1     -15.675  17.223  -2.565  1.00  0.00    +0.041 HD
ATOM    158  H   UNK A   1     -16.681  16.768  -3.961  1.00  0.00    +0.041 HD
ATOM    159  H   UNK A   1     -19.707  16.139  -1.210  1.00  0.00    +0.296 HD
ATOM    160  H   UNK A   1     -13.579  26.621  -5.306  1.00  0.00    +0.064 HD
ATOM    161  H   UNK A   1     -14.162  28.191  -5.739  1.00  0.00    +0.064 HD
ATOM    162  H   UNK A   1     -13.164  25.209  -7.054  1.00  0.00    +0.296 HD
ATOM    163  H   UNK A   1     -16.117  16.807  -8.508  1.00  0.00    +0.063 HD
ATOM    164  H   UNK A   1     -13.761  16.187  -8.847  1.00  0.00    +0.063 HD
ATOM    165  H   UNK A   1     -10.962  17.340  -6.480  1.00  0.00    +0.043 HD
ATOM    166  H   UNK A   1     -11.246  17.729  -8.159  1.00  0.00    +0.043 HD
ATOM    167  H   UNK A   1     -12.705  18.497  -5.413  1.00  0.00    +0.063 HD
ATOM    168  H   UNK A   1     -14.246  19.072  -3.799  1.00  0.00    +0.058 HD
ATOM    169  H   UNK A   1     -17.770  17.712  -6.003  1.00  0.00    +0.028 HD
ATOM    170  H   UNK A   1     -17.368  19.428  -6.370  1.00  0.00    +0.028 HD
ATOM    171  H   UNK A   1     -17.697  18.309  -7.661  1.00  0.00    +0.028 HD
ENDROOT
TORSDOF 0
ENDMDL
