REMARK  Generated by RDKit with Gasteiger charges
REMARK  --------------------------------------------------
ROOT
ATOM      1  N   UNK A   1      -9.470   9.540  -0.988  1.00  0.00    -0.131 N 
ATOM      2  C   UNK A   1      -8.601   8.365  -0.708  1.00  0.00    +0.121 C 
ATOM      3  C   UNK A   1      -7.913   8.022  -2.029  1.00  0.00    -0.037 C 
ATOM      4  C   UNK A   1      -7.578   8.753   0.385  1.00  0.00    +0.262 C 
ATOM      5  O   UNK A   1      -7.382   9.951   0.645  1.00  0.00    -0.271 OA
ATOM      6  N   UNK A   1      -6.874   7.759   0.960  1.00  0.00    -0.236 N 
ATOM      7  C   UNK A   1      -7.357   6.334   0.869  1.00  0.00    +0.143 C 
ATOM      8  C   UNK A   1      -6.229   5.303   1.240  1.00  0.00    +0.025 C 
ATOM      9  S   UNK A   1      -4.716   5.292   0.130  1.00  0.00    -0.154 S 
ATOM     10  C   UNK A   1      -8.586   6.072   1.820  1.00  0.00    +0.267 C 
ATOM     11  O   UNK A   1      -8.862   6.789   2.786  1.00  0.00    -0.270 OA
ATOM     12  N   UNK A   1      -9.307   5.005   1.411  1.00  0.00    -0.239 N 
ATOM     13  C   UNK A   1      -9.475   3.987   2.490  1.00  0.00    +0.124 C 
ATOM     14  C   UNK A   1     -10.028   2.620   1.988  1.00  0.00    +0.263 C 
ATOM     15  O   UNK A   1     -11.074   2.549   1.328  1.00  0.00    -0.271 OA
ATOM     16  N   UNK A   1      -9.303   1.576   2.454  1.00  0.00    -0.236 N 
ATOM     17  C   UNK A   1      -8.817   0.576   1.402  1.00  0.00    +0.134 C 
ATOM     18  C   UNK A   1      -8.067   1.330   0.266  1.00  0.00    -0.021 C 
ATOM     19  C   UNK A   1      -8.028   0.684  -1.129  1.00  0.00    -0.050 C 
ATOM     20  C   UNK A   1      -9.337   0.160  -1.731  1.00  0.00    -0.041 C 
ATOM     21  C   UNK A   1     -10.597   1.007  -1.556  1.00  0.00    -0.008 C 
ATOM     22  N   UNK A   1     -10.493   2.416  -1.978  1.00  0.00    -0.330 N 
ATOM     23  C   UNK A   1      -7.868  -0.533   2.077  1.00  0.00    +0.266 C 
ATOM     24  O   UNK A   1      -7.654  -0.547   3.296  1.00  0.00    -0.270 OA
ATOM     25  N   UNK A   1      -7.467  -1.475   1.175  1.00  0.00    -0.236 N 
ATOM     26  C   UNK A   1      -6.190  -2.256   1.481  1.00  0.00    +0.134 C 
ATOM     27  C   UNK A   1      -6.562  -3.588   2.190  1.00  0.00    -0.020 C 
ATOM     28  C   UNK A   1      -7.164  -3.358   3.566  1.00  0.00    -0.033 C 
ATOM     29  C   UNK A   1      -7.314  -4.619   4.398  1.00  0.00    +0.018 C 
ATOM     30  N   UNK A   1      -7.663  -4.254   5.792  1.00  0.00    -0.357 N 
ATOM     31  C   UNK A   1      -8.898  -3.751   6.042  1.00  0.00    +0.185 C 
ATOM     32  N   UNK A   1      -9.923  -4.510   6.229  1.00  0.00    -0.270 N 
ATOM     33  N   UNK A   1      -8.922  -2.408   6.156  1.00  0.00    -0.370 N 
ATOM     34  C   UNK A   1      -5.341  -2.627   0.169  1.00  0.00    +0.266 C 
ATOM     35  O   UNK A   1      -5.747  -2.332  -0.962  1.00  0.00    -0.270 OA
ATOM     36  N   UNK A   1      -4.269  -3.442   0.389  1.00  0.00    -0.236 N 
ATOM     37  C   UNK A   1      -2.906  -2.771   0.629  1.00  0.00    +0.136 C 
ATOM     38  C   UNK A   1      -2.629  -2.866   2.171  1.00  0.00    -0.015 C 
ATOM     39  C   UNK A   1      -2.288  -4.279   2.666  1.00  0.00    -0.060 C 
ATOM     40  C   UNK A   1      -1.602  -1.847   2.684  1.00  0.00    -0.060 C 
ATOM     41  C   UNK A   1      -1.732  -3.338  -0.353  1.00  0.00    +0.267 C 
ATOM     42  O   UNK A   1      -2.016  -3.748  -1.486  1.00  0.00    -0.270 OA
ATOM     43  N   UNK A   1      -0.466  -3.249   0.155  1.00  0.00    -0.235 N 
ATOM     44  C   UNK A   1       0.682  -3.088  -0.856  1.00  0.00    +0.143 C 
ATOM     45  C   UNK A   1       0.783  -1.600  -1.340  1.00  0.00    +0.027 C 
ATOM     46  S   UNK A   1       1.006  -0.219  -0.088  1.00  0.00    -0.140 S 
ATOM     47  C   UNK A   1       2.154  -3.626  -0.429  1.00  0.00    +0.267 C 
ATOM     48  O   UNK A   1       2.560  -3.557   0.734  1.00  0.00    -0.270 OA
ATOM     49  N   UNK A   1       2.815  -4.193  -1.478  1.00  0.00    -0.236 N 
ATOM     50  C   UNK A   1       4.317  -4.007  -1.734  1.00  0.00    +0.135 C 
ATOM     51  C   UNK A   1       4.927  -2.629  -1.207  1.00  0.00    -0.012 C 
ATOM     52  C   UNK A   1       6.115  -2.075  -2.065  1.00  0.00    +0.031 C 
ATOM     53  C   UNK A   1       6.859  -0.776  -1.571  1.00  0.00    +0.242 C 
ATOM     54  O   UNK A   1       7.267  -0.679  -0.410  1.00  0.00    -0.273 OA
ATOM     55  C   UNK A   1       5.284  -5.271  -1.449  1.00  0.00    +0.266 C 
ATOM     56  O   UNK A   1       6.208  -5.168  -0.631  1.00  0.00    -0.270 OA
ATOM     57  N   UNK A   1       7.102   0.081  -2.591  1.00  0.00    -0.237 N 
ATOM     58  C   UNK A   1       7.521   1.496  -2.210  1.00  0.00    +0.143 C 
ATOM     59  C   UNK A   1       8.979   1.745  -2.736  1.00  0.00    +0.060 C 
ATOM     60  C   UNK A   1       9.829   2.931  -2.162  1.00  0.00    +0.244 C 
ATOM     61  O   UNK A   1       9.379   4.052  -1.933  1.00  0.00    -0.273 OA
ATOM     62  C   UNK A   1       6.458   2.448  -2.903  1.00  0.00    +0.267 C 
ATOM     63  O   UNK A   1       6.622   2.930  -4.030  1.00  0.00    -0.270 OA
ATOM     64  N   UNK A   1       5.086  -6.368  -2.251  1.00  0.00    -0.236 N 
ATOM     65  C   UNK A   1       5.991  -7.548  -1.959  1.00  0.00    +0.140 C 
ATOM     66  C   UNK A   1       5.884  -8.134  -0.513  1.00  0.00    +0.023 C 
ATOM     67  C   UNK A   1       4.529  -8.506   0.028  1.00  0.00    +0.061 C 
ATOM     68  C   UNK A   1       3.366  -7.770  -0.049  1.00  0.00    +0.024 C 
ATOM     69  N   UNK A   1       2.447  -8.416   0.708  1.00  0.00    -0.351 N 
ATOM     70  C   UNK A   1       3.062  -9.533   1.215  1.00  0.00    +0.092 C 
ATOM     71  N   UNK A   1       4.324  -9.626   0.854  1.00  0.00    -0.242 N 
ATOM     72  C   UNK A   1       5.865  -8.751  -2.956  1.00  0.00    +0.267 C 
ATOM     73  O   UNK A   1       4.821  -9.348  -3.220  1.00  0.00    -0.270 OA
ATOM     74  N   UNK A   1      11.141   2.599  -2.063  1.00  0.00    -0.236 N 
ATOM     75  C   UNK A   1      12.007   3.723  -1.588  1.00  0.00    +0.155 C 
ATOM     76  C   UNK A   1      11.908   3.934  -0.063  1.00  0.00    +0.006 C 
ATOM     77  C   UNK A   1      11.906   5.406   0.309  1.00  0.00    -0.045 C 
ATOM     78  C   UNK A   1      10.684   6.091   0.338  1.00  0.00    -0.055 C 
ATOM     79  C   UNK A   1      10.631   7.458   0.601  1.00  0.00    -0.020 C 
ATOM     80  C   UNK A   1      11.817   8.147   0.844  1.00  0.00    +0.115 C 
ATOM     81  O   UNK A   1      11.794   9.501   1.031  1.00  0.00    -0.508 OA
ATOM     82  C   UNK A   1      13.044   7.487   0.832  1.00  0.00    -0.020 C 
ATOM     83  C   UNK A   1      13.087   6.115   0.559  1.00  0.00    -0.055 C 
ATOM     84  C   UNK A   1      13.442   3.325  -1.942  1.00  0.00    +0.328 C 
ATOM     85  O   UNK A   1      14.456   3.958  -1.649  1.00  0.00    -0.250 OA
ATOM     86  O   UNK A   1      13.492   2.159  -2.639  1.00  0.00    -0.480 OA
ATOM     87  N   UNK A   1       5.426   2.722  -2.076  1.00  0.00    -0.233 N 
ATOM     88  C   UNK A   1       4.073   2.687  -2.710  1.00  0.00    +0.160 C 
ATOM     89  C   UNK A   1       3.080   1.818  -1.850  1.00  0.00    +0.028 C 
ATOM     90  S   UNK A   1       1.291   1.987  -2.356  1.00  0.00    -0.140 S 
ATOM     91  C   UNK A   1       3.596   4.126  -2.823  1.00  0.00    +0.329 C 
ATOM     92  O   UNK A   1       3.303   4.745  -3.846  1.00  0.00    -0.250 OA
ATOM     93  O   UNK A   1       3.438   4.773  -1.641  1.00  0.00    -0.480 OA
ATOM     94  N   UNK A   1       7.055  -9.156  -3.460  1.00  0.00    -0.238 N 
ATOM     95  C   UNK A   1       7.261 -10.608  -3.408  1.00  0.00    +0.140 C 
ATOM     96  C   UNK A   1       6.705 -11.395  -4.582  1.00  0.00    +0.325 C 
ATOM     97  O   UNK A   1       7.249 -12.401  -5.048  1.00  0.00    -0.250 OA
ATOM     98  O   UNK A   1       5.522 -10.960  -5.060  1.00  0.00    -0.480 OA
ATOM     99  C   UNK A   1      -0.456   4.109   1.539  1.00  0.00    -0.059 C 
ATOM    100  C   UNK A   1      -1.833   4.285   1.375  1.00  0.00    -0.058 C 
ATOM    101  C   UNK A   1      -2.550   3.467   0.507  1.00  0.00    -0.038 C 
ATOM    102  C   UNK A   1      -4.081   3.570   0.454  1.00  0.00    +0.019 C 
ATOM    103  C   UNK A   1      -1.827   2.475  -0.211  1.00  0.00    -0.053 C 
ATOM    104  C   UNK A   1      -0.409   2.281  -0.083  1.00  0.00    -0.022 C 
ATOM    105  C   UNK A   1       0.284   1.197  -0.982  1.00  0.00    +0.076 C 
ATOM    106  C   UNK A   1       0.262   3.108   0.845  1.00  0.00    -0.046 C 
ATOM    107  C   UNK A   1       1.732   3.031   1.135  1.00  0.00    -0.039 C 
ATOM    108  H   UNK A   1      -9.268   7.567  -0.376  1.00  0.00    +0.060 HD
ATOM    109  H   UNK A   1      -8.653   7.782  -2.801  1.00  0.00    +0.025 HD
ATOM    110  H   UNK A   1      -7.292   8.849  -2.398  1.00  0.00    +0.025 HD
ATOM    111  H   UNK A   1      -7.248   7.158  -1.934  1.00  0.00    +0.025 HD
ATOM    112  H   UNK A   1      -7.662   6.054  -0.149  1.00  0.00    +0.067 HD
ATOM    113  H   UNK A   1      -6.645   4.291   1.197  1.00  0.00    +0.041 HD
ATOM    114  H   UNK A   1      -5.883   5.468   2.264  1.00  0.00    +0.041 HD
ATOM    115  H   UNK A   1     -10.182   4.337   3.256  1.00  0.00    +0.062 HD
ATOM    116  H   UNK A   1      -8.514   3.812   3.004  1.00  0.00    +0.062 HD
ATOM    117  H   UNK A   1      -9.686   0.023   1.015  1.00  0.00    +0.066 HD
ATOM    118  H   UNK A   1      -8.488   2.331   0.113  1.00  0.00    +0.029 HD
ATOM    119  H   UNK A   1      -7.028   1.511   0.580  1.00  0.00    +0.029 HD
ATOM    120  H   UNK A   1      -7.299  -0.134  -1.137  1.00  0.00    +0.027 HD
ATOM    121  H   UNK A   1      -7.599   1.429  -1.813  1.00  0.00    +0.027 HD
ATOM    122  H   UNK A   1      -9.164   0.005  -2.805  1.00  0.00    +0.028 HD
ATOM    123  H   UNK A   1      -9.541  -0.835  -1.319  1.00  0.00    +0.028 HD
ATOM    124  H   UNK A   1     -11.412   0.545  -2.129  1.00  0.00    +0.043 HD
ATOM    125  H   UNK A   1     -10.926   0.974  -0.514  1.00  0.00    +0.043 HD
ATOM    126  H   UNK A   1     -10.647   2.929  -1.081  1.00  0.00    +0.118 HD
ATOM    127  H   UNK A   1      -9.490   2.613  -2.066  1.00  0.00    +0.118 HD
ATOM    128  H   UNK A   1      -5.519  -1.655   2.110  1.00  0.00    +0.066 HD
ATOM    129  H   UNK A   1      -5.672  -4.216   2.320  1.00  0.00    +0.029 HD
ATOM    130  H   UNK A   1      -7.260  -4.168   1.567  1.00  0.00    +0.029 HD
ATOM    131  H   UNK A   1      -6.533  -2.650   4.117  1.00  0.00    +0.029 HD
ATOM    132  H   UNK A   1      -8.160  -2.919   3.451  1.00  0.00    +0.029 HD
ATOM    133  H   UNK A   1      -8.075  -5.283   3.979  1.00  0.00    +0.049 HD
ATOM    134  H   UNK A   1      -6.372  -5.174   4.426  1.00  0.00    +0.049 HD
ATOM    135  H   UNK A   1      -6.979  -3.535   6.047  1.00  0.00    +0.163 HD
ATOM    136  H   UNK A   1      -9.539  -5.440   6.047  1.00  0.00    +0.191 HD
ATOM    137  H   UNK A   1      -8.357  -1.929   5.437  1.00  0.00    +0.159 HD
ATOM    138  H   UNK A   1      -9.856  -2.033   6.025  1.00  0.00    +0.159 HD
ATOM    139  H   UNK A   1      -2.977  -1.700   0.370  1.00  0.00    +0.066 HD
ATOM    140  H   UNK A   1      -3.560  -2.592   2.684  1.00  0.00    +0.032 HD
ATOM    141  H   UNK A   1      -1.320  -4.626   2.306  1.00  0.00    +0.023 HD
ATOM    142  H   UNK A   1      -2.249  -4.298   3.764  1.00  0.00    +0.023 HD
ATOM    143  H   UNK A   1      -3.047  -5.001   2.349  1.00  0.00    +0.023 HD
ATOM    144  H   UNK A   1      -0.575  -2.112   2.423  1.00  0.00    +0.023 HD
ATOM    145  H   UNK A   1      -1.817  -0.842   2.300  1.00  0.00    +0.023 HD
ATOM    146  H   UNK A   1      -1.655  -1.795   3.780  1.00  0.00    +0.023 HD
ATOM    147  H   UNK A   1       0.435  -3.688  -1.746  1.00  0.00    +0.067 HD
ATOM    148  H   UNK A   1       1.621  -1.504  -2.038  1.00  0.00    +0.041 HD
ATOM    149  H   UNK A   1      -0.134  -1.373  -1.900  1.00  0.00    +0.041 HD
ATOM    150  H   UNK A   1       4.382  -3.904  -2.829  1.00  0.00    +0.066 HD
ATOM    151  H   UNK A   1       4.151  -1.854  -1.206  1.00  0.00    +0.030 HD
ATOM    152  H   UNK A   1       5.251  -2.747  -0.166  1.00  0.00    +0.030 HD
ATOM    153  H   UNK A   1       6.889  -2.848  -2.148  1.00  0.00    +0.037 HD
ATOM    154  H   UNK A   1       5.736  -1.900  -3.081  1.00  0.00    +0.037 HD
ATOM    155  H   UNK A   1       7.509   1.690  -1.127  1.00  0.00    +0.066 HD
ATOM    156  H   UNK A   1       9.549   0.827  -2.533  1.00  0.00    +0.040 HD
ATOM    157  H   UNK A   1       8.973   1.869  -3.826  1.00  0.00    +0.040 HD
ATOM    158  H   UNK A   1       7.029  -7.185  -2.069  1.00  0.00    +0.066 HD
ATOM    159  H   UNK A   1       6.319  -7.413   0.199  1.00  0.00    +0.036 HD
ATOM    160  H   UNK A   1       6.524  -9.027  -0.445  1.00  0.00    +0.036 HD
ATOM    161  H   UNK A   1       3.144  -6.821  -0.530  1.00  0.00    +0.084 HD
ATOM    162  H   UNK A   1       1.508  -8.073   0.876  1.00  0.00    +0.167 HD
ATOM    163  H   UNK A   1       2.531 -10.223   1.849  1.00  0.00    +0.104 HD
ATOM    164  H   UNK A   1      11.809   4.638  -2.161  1.00  0.00    +0.068 HD
ATOM    165  H   UNK A   1      10.990   3.483   0.343  1.00  0.00    +0.034 HD
ATOM    166  H   UNK A   1      12.729   3.432   0.469  1.00  0.00    +0.034 HD
ATOM    167  H   UNK A   1       9.763   5.544   0.115  1.00  0.00    +0.063 HD
ATOM    168  H   UNK A   1       9.657   7.931   0.562  1.00  0.00    +0.066 HD
ATOM    169  H   UNK A   1      10.877   9.761   0.843  1.00  0.00    +0.293 HD
ATOM    170  H   UNK A   1      13.963   8.034   0.988  1.00  0.00    +0.066 HD
ATOM    171  H   UNK A   1      14.038   5.595   0.493  1.00  0.00    +0.063 HD
ATOM    172  H   UNK A   1      12.513   1.910  -2.665  1.00  0.00    +0.296 HD
ATOM    173  H   UNK A   1       4.084   2.259  -3.720  1.00  0.00    +0.068 HD
ATOM    174  H   UNK A   1       3.362   0.765  -1.944  1.00  0.00    +0.041 HD
ATOM    175  H   UNK A   1       3.181   2.087  -0.799  1.00  0.00    +0.041 HD
ATOM    176  H   UNK A   1       3.034   5.597  -1.947  1.00  0.00    +0.296 HD
ATOM    177  H   UNK A   1       8.344 -10.799  -3.412  1.00  0.00    +0.064 HD
ATOM    178  H   UNK A   1       6.878 -11.068  -2.489  1.00  0.00    +0.064 HD
ATOM    179  H   UNK A   1       5.277 -10.171  -4.478  1.00  0.00    +0.296 HD
ATOM    180  H   UNK A   1       0.074   4.765   2.219  1.00  0.00    +0.063 HD
ATOM    181  H   UNK A   1      -2.348   5.041   1.958  1.00  0.00    +0.063 HD
ATOM    182  H   UNK A   1      -4.478   2.929  -0.340  1.00  0.00    +0.043 HD
ATOM    183  H   UNK A   1      -4.474   3.211   1.413  1.00  0.00    +0.043 HD
ATOM    184  H   UNK A   1      -2.386   1.805  -0.868  1.00  0.00    +0.063 HD
ATOM    185  H   UNK A   1      -0.543   0.752  -1.545  1.00  0.00    +0.058 HD
ATOM    186  H   UNK A   1       1.951   3.418   2.138  1.00  0.00    +0.028 HD
ATOM    187  H   UNK A   1       2.108   2.009   1.138  1.00  0.00    +0.028 HD
ATOM    188  H   UNK A   1       2.277   3.649   0.423  1.00  0.00    +0.028 HD
ENDROOT
TORSDOF 0