REMARK  Generated by RDKit with Gasteiger charges
REMARK  --------------------------------------------------
ROOT
ATOM      1  N   UNK A   1      -5.526 -10.538   0.260  1.00  0.00    -0.131 N 
ATOM      2  C   UNK A   1      -4.592  -9.402   0.460  1.00  0.00    +0.121 C 
ATOM      3  C   UNK A   1      -3.346  -9.675  -0.369  1.00  0.00    -0.037 C 
ATOM      4  C   UNK A   1      -5.298  -8.089   0.068  1.00  0.00    +0.262 C 
ATOM      5  O   UNK A   1      -6.213  -8.076  -0.762  1.00  0.00    -0.271 OA
ATOM      6  N   UNK A   1      -4.844  -7.103   0.847  1.00  0.00    -0.236 N 
ATOM      7  C   UNK A   1      -4.528  -5.765   0.187  1.00  0.00    +0.143 C 
ATOM      8  C   UNK A   1      -4.215  -4.737   1.329  1.00  0.00    +0.025 C 
ATOM      9  S   UNK A   1      -5.632  -4.249   2.450  1.00  0.00    -0.154 S 
ATOM     10  C   UNK A   1      -3.223  -5.824  -0.722  1.00  0.00    +0.267 C 
ATOM     11  O   UNK A   1      -2.375  -6.706  -0.540  1.00  0.00    -0.270 OA
ATOM     12  N   UNK A   1      -3.195  -4.936  -1.751  1.00  0.00    -0.235 N 
ATOM     13  C   UNK A   1      -2.483  -3.596  -1.477  1.00  0.00    +0.143 C 
ATOM     14  C   UNK A   1      -1.234  -3.230  -2.396  1.00  0.00    +0.060 C 
ATOM     15  C   UNK A   1       0.322  -3.597  -2.110  1.00  0.00    +0.244 C 
ATOM     16  O   UNK A   1       0.817  -4.588  -2.673  1.00  0.00    -0.273 OA
ATOM     17  C   UNK A   1      -3.593  -2.396  -1.504  1.00  0.00    +0.267 C 
ATOM     18  O   UNK A   1      -3.755  -1.755  -0.466  1.00  0.00    -0.270 OA
ATOM     19  N   UNK A   1       1.010  -2.680  -1.366  1.00  0.00    -0.238 N 
ATOM     20  C   UNK A   1       2.515  -2.528  -1.650  1.00  0.00    +0.135 C 
ATOM     21  C   UNK A   1       2.724  -1.866  -3.043  1.00  0.00    -0.013 C 
ATOM     22  C   UNK A   1       1.919  -0.595  -3.351  1.00  0.00    +0.029 C 
ATOM     23  C   UNK A   1       2.732   0.668  -3.181  1.00  0.00    +0.217 C 
ATOM     24  O   UNK A   1       3.283   1.251  -4.125  1.00  0.00    -0.275 OA
ATOM     25  N   UNK A   1       2.743   1.147  -1.908  1.00  0.00    -0.370 N 
ATOM     26  C   UNK A   1       3.453  -1.964  -0.428  1.00  0.00    +0.266 C 
ATOM     27  O   UNK A   1       3.377  -2.487   0.687  1.00  0.00    -0.270 OA
ATOM     28  N   UNK A   1      -4.188  -2.098  -2.688  1.00  0.00    -0.236 N 
ATOM     29  C   UNK A   1      -5.647  -1.676  -2.732  1.00  0.00    +0.131 C 
ATOM     30  C   UNK A   1      -6.498  -2.961  -2.585  1.00  0.00    -0.033 C 
ATOM     31  C   UNK A   1      -6.400  -0.546  -1.910  1.00  0.00    +0.266 C 
ATOM     32  O   UNK A   1      -6.930  -0.799  -0.823  1.00  0.00    -0.270 OA
ATOM     33  N   UNK A   1       4.394  -1.048  -0.804  1.00  0.00    -0.235 N 
ATOM     34  C   UNK A   1       5.327  -0.441   0.286  1.00  0.00    +0.143 C 
ATOM     35  C   UNK A   1       6.851  -0.356  -0.270  1.00  0.00    +0.060 C 
ATOM     36  C   UNK A   1       8.092  -1.124   0.382  1.00  0.00    +0.244 C 
ATOM     37  O   UNK A   1       7.973  -2.109   1.114  1.00  0.00    -0.273 OA
ATOM     38  C   UNK A   1       4.848   1.079   0.532  1.00  0.00    +0.267 C 
ATOM     39  O   UNK A   1       4.860   1.902  -0.396  1.00  0.00    -0.270 OA
ATOM     40  N   UNK A   1      -6.612   0.613  -2.604  1.00  0.00    -0.235 N 
ATOM     41  C   UNK A   1      -6.986   1.825  -1.733  1.00  0.00    +0.143 C 
ATOM     42  C   UNK A   1      -5.638   2.400  -1.151  1.00  0.00    +0.027 C 
ATOM     43  S   UNK A   1      -5.602   2.973   0.634  1.00  0.00    -0.140 S 
ATOM     44  C   UNK A   1      -7.737   2.917  -2.658  1.00  0.00    +0.267 C 
ATOM     45  O   UNK A   1      -7.128   3.557  -3.524  1.00  0.00    -0.270 OA
ATOM     46  N   UNK A   1       9.300  -0.614  -0.037  1.00  0.00    -0.235 N 
ATOM     47  C   UNK A   1      10.453  -1.558   0.122  1.00  0.00    +0.157 C 
ATOM     48  C   UNK A   1      10.419  -2.664  -0.964  1.00  0.00    +0.075 C 
ATOM     49  O   UNK A   1      11.015  -3.894  -0.486  1.00  0.00    -0.394 OA
ATOM     50  C   UNK A   1      11.872  -0.917   0.174  1.00  0.00    +0.269 C 
ATOM     51  O   UNK A   1      12.688  -1.238   1.046  1.00  0.00    -0.270 OA
ATOM     52  N   UNK A   1       4.662   1.463   1.818  1.00  0.00    -0.236 N 
ATOM     53  C   UNK A   1       3.332   1.101   2.437  1.00  0.00    +0.140 C 
ATOM     54  C   UNK A   1       3.608   0.435   3.840  1.00  0.00    +0.023 C 
ATOM     55  C   UNK A   1       3.989   1.384   4.961  1.00  0.00    +0.061 C 
ATOM     56  C   UNK A   1       4.672   2.582   4.847  1.00  0.00    +0.024 C 
ATOM     57  N   UNK A   1       4.397   3.247   5.993  1.00  0.00    -0.351 N 
ATOM     58  C   UNK A   1       3.783   2.382   6.845  1.00  0.00    +0.092 C 
ATOM     59  N   UNK A   1       3.589   1.207   6.291  1.00  0.00    -0.242 N 
ATOM     60  C   UNK A   1       2.317   2.307   2.624  1.00  0.00    +0.267 C 
ATOM     61  O   UNK A   1       2.653   3.494   2.713  1.00  0.00    -0.270 OA
ATOM     62  N   UNK A   1      -9.068   3.089  -2.381  1.00  0.00    -0.236 N 
ATOM     63  C   UNK A   1      -9.903   3.406  -3.603  1.00  0.00    +0.136 C 
ATOM     64  C   UNK A   1     -10.281   2.111  -4.406  1.00  0.00    -0.015 C 
ATOM     65  C   UNK A   1     -10.628   0.902  -3.526  1.00  0.00    -0.060 C 
ATOM     66  C   UNK A   1      -9.203   1.722  -5.425  1.00  0.00    -0.060 C 
ATOM     67  C   UNK A   1     -11.245   4.171  -3.272  1.00  0.00    +0.266 C 
ATOM     68  O   UNK A   1     -12.309   3.603  -3.017  1.00  0.00    -0.270 OA
ATOM     69  N   UNK A   1      12.230  -0.129  -0.856  1.00  0.00    -0.234 N 
ATOM     70  C   UNK A   1      12.966   1.118  -0.496  1.00  0.00    +0.155 C 
ATOM     71  C   UNK A   1      12.457   1.804   0.794  1.00  0.00    +0.006 C 
ATOM     72  C   UNK A   1      12.396   3.318   0.712  1.00  0.00    -0.045 C 
ATOM     73  C   UNK A   1      13.530   4.113   0.902  1.00  0.00    -0.059 C 
ATOM     74  C   UNK A   1      13.432   5.504   0.848  1.00  0.00    -0.062 C 
ATOM     75  C   UNK A   1      12.203   6.116   0.600  1.00  0.00    -0.062 C 
ATOM     76  C   UNK A   1      11.071   5.332   0.392  1.00  0.00    -0.062 C 
ATOM     77  C   UNK A   1      11.171   3.941   0.437  1.00  0.00    -0.059 C 
ATOM     78  C   UNK A   1      14.477   0.903  -0.412  1.00  0.00    +0.328 C 
ATOM     79  O   UNK A   1      15.328   1.764  -0.640  1.00  0.00    -0.250 OA
ATOM     80  O   UNK A   1      14.853  -0.332   0.005  1.00  0.00    -0.480 OA
ATOM     81  N   UNK A   1       1.059   1.892   2.907  1.00  0.00    -0.233 N 
ATOM     82  C   UNK A   1      -0.069   2.877   2.779  1.00  0.00    +0.160 C 
ATOM     83  C   UNK A   1      -1.392   2.108   2.393  1.00  0.00    +0.028 C 
ATOM     84  S   UNK A   1      -2.827   3.220   1.910  1.00  0.00    -0.140 S 
ATOM     85  C   UNK A   1      -0.203   3.643   4.117  1.00  0.00    +0.329 C 
ATOM     86  O   UNK A   1      -1.230   3.893   4.744  1.00  0.00    -0.250 OA
ATOM     87  O   UNK A   1       0.986   4.150   4.571  1.00  0.00    -0.480 OA
ATOM     88  N   UNK A   1     -11.179   5.511  -3.412  1.00  0.00    -0.238 N 
ATOM     89  C   UNK A   1     -10.274   6.145  -2.447  1.00  0.00    +0.140 C 
ATOM     90  C   UNK A   1     -10.707   5.959  -1.008  1.00  0.00    +0.325 C 
ATOM     91  O   UNK A   1     -11.296   6.831  -0.361  1.00  0.00    -0.250 OA
ATOM     92  O   UNK A   1     -10.377   4.767  -0.468  1.00  0.00    -0.480 OA
ATOM     93  C   UNK A   1      -5.323  -0.028   4.446  1.00  0.00    -0.059 C 
ATOM     94  C   UNK A   1      -5.674  -1.240   3.835  1.00  0.00    -0.058 C 
ATOM     95  C   UNK A   1      -5.552  -1.392   2.458  1.00  0.00    -0.038 C 
ATOM     96  C   UNK A   1      -6.033  -2.617   1.686  1.00  0.00    +0.019 C 
ATOM     97  C   UNK A   1      -5.058  -0.289   1.741  1.00  0.00    -0.053 C 
ATOM     98  C   UNK A   1      -4.643   0.939   2.319  1.00  0.00    -0.022 C 
ATOM     99  C   UNK A   1      -4.109   1.966   1.301  1.00  0.00    +0.076 C 
ATOM    100  C   UNK A   1      -4.846   1.080   3.705  1.00  0.00    -0.046 C 
ATOM    101  C   UNK A   1      -4.566   2.345   4.460  1.00  0.00    -0.039 C 
ATOM    102  H   UNK A   1      -4.353  -9.399   1.530  1.00  0.00    +0.060 HD
ATOM    103  H   UNK A   1      -3.034 -10.724  -0.286  1.00  0.00    +0.025 HD
ATOM    104  H   UNK A   1      -2.510  -9.070  -0.010  1.00  0.00    +0.025 HD
ATOM    105  H   UNK A   1      -3.498  -9.446  -1.430  1.00  0.00    +0.025 HD
ATOM    106  H   UNK A   1      -5.372  -5.412  -0.418  1.00  0.00    +0.067 HD
ATOM    107  H   UNK A   1      -3.778  -3.814   0.946  1.00  0.00    +0.041 HD
ATOM    108  H   UNK A   1      -3.454  -5.167   1.994  1.00  0.00    +0.041 HD
ATOM    109  H   UNK A   1      -2.083  -3.592  -0.452  1.00  0.00    +0.066 HD
ATOM    110  H   UNK A   1      -1.433  -3.629  -3.400  1.00  0.00    +0.040 HD
ATOM    111  H   UNK A   1      -1.235  -2.139  -2.533  1.00  0.00    +0.040 HD
ATOM    112  H   UNK A   1       2.940  -3.542  -1.752  1.00  0.00    +0.066 HD
ATOM    113  H   UNK A   1       3.792  -1.696  -3.230  1.00  0.00    +0.030 HD
ATOM    114  H   UNK A   1       2.423  -2.607  -3.797  1.00  0.00    +0.030 HD
ATOM    115  H   UNK A   1       1.609  -0.616  -4.404  1.00  0.00    +0.037 HD
ATOM    116  H   UNK A   1       0.996  -0.511  -2.769  1.00  0.00    +0.037 HD
ATOM    117  H   UNK A   1       2.605   0.432  -1.177  1.00  0.00    +0.159 HD
ATOM    118  H   UNK A   1       3.573   1.670  -1.617  1.00  0.00    +0.159 HD
ATOM    119  H   UNK A   1      -5.804  -1.375  -3.781  1.00  0.00    +0.065 HD
ATOM    120  H   UNK A   1      -7.562  -2.751  -2.763  1.00  0.00    +0.026 HD
ATOM    121  H   UNK A   1      -6.185  -3.733  -3.298  1.00  0.00    +0.026 HD
ATOM    122  H   UNK A   1      -6.404  -3.379  -1.575  1.00  0.00    +0.026 HD
ATOM    123  H   UNK A   1       5.321  -0.997   1.229  1.00  0.00    +0.066 HD
ATOM    124  H   UNK A   1       7.142   0.704  -0.261  1.00  0.00    +0.040 HD
ATOM    125  H   UNK A   1       6.846  -0.664  -1.324  1.00  0.00    +0.040 HD
ATOM    126  H   UNK A   1      -7.663   1.550  -0.915  1.00  0.00    +0.067 HD
ATOM    127  H   UNK A   1      -4.828   1.672  -1.267  1.00  0.00    +0.041 HD
ATOM    128  H   UNK A   1      -5.333   3.278  -1.733  1.00  0.00    +0.041 HD
ATOM    129  H   UNK A   1      10.376  -2.030   1.115  1.00  0.00    +0.068 HD
ATOM    130  H   UNK A   1       9.391  -2.921  -1.246  1.00  0.00    +0.059 HD
ATOM    131  H   UNK A   1      10.946  -2.365  -1.876  1.00  0.00    +0.059 HD
ATOM    132  H   UNK A   1      10.699  -3.897   0.439  1.00  0.00    +0.210 HD
ATOM    133  H   UNK A   1       2.822   0.341   1.823  1.00  0.00    +0.066 HD
ATOM    134  H   UNK A   1       2.704  -0.100   4.157  1.00  0.00    +0.036 HD
ATOM    135  H   UNK A   1       4.400  -0.317   3.739  1.00  0.00    +0.036 HD
ATOM    136  H   UNK A   1       5.078   3.051   3.957  1.00  0.00    +0.084 HD
ATOM    137  H   UNK A   1       4.525   4.239   6.113  1.00  0.00    +0.167 HD
ATOM    138  H   UNK A   1       3.466   2.664   7.836  1.00  0.00    +0.104 HD
ATOM    139  H   UNK A   1      -9.365   4.063  -4.302  1.00  0.00    +0.066 HD
ATOM    140  H   UNK A   1     -11.177   2.339  -5.001  1.00  0.00    +0.032 HD
ATOM    141  H   UNK A   1      -9.748   0.499  -3.017  1.00  0.00    +0.023 HD
ATOM    142  H   UNK A   1     -11.047   0.095  -4.138  1.00  0.00    +0.023 HD
ATOM    143  H   UNK A   1     -11.376   1.157  -2.769  1.00  0.00    +0.023 HD
ATOM    144  H   UNK A   1      -8.982   2.560  -6.095  1.00  0.00    +0.023 HD
ATOM    145  H   UNK A   1      -9.547   0.886  -6.046  1.00  0.00    +0.023 HD
ATOM    146  H   UNK A   1      -8.272   1.415  -4.943  1.00  0.00    +0.023 HD
ATOM    147  H   UNK A   1      12.832   1.804  -1.348  1.00  0.00    +0.068 HD
ATOM    148  H   UNK A   1      11.449   1.460   1.056  1.00  0.00    +0.034 HD
ATOM    149  H   UNK A   1      13.086   1.535   1.654  1.00  0.00    +0.034 HD
ATOM    150  H   UNK A   1      14.488   3.636   1.086  1.00  0.00    +0.063 HD
ATOM    151  H   UNK A   1      14.320   6.102   1.012  1.00  0.00    +0.062 HD
ATOM    152  H   UNK A   1      12.127   7.197   0.557  1.00  0.00    +0.062 HD
ATOM    153  H   UNK A   1      10.099   5.775   0.202  1.00  0.00    +0.062 HD
ATOM    154  H   UNK A   1      10.276   3.328   0.271  1.00  0.00    +0.063 HD
ATOM    155  H   UNK A   1      13.978  -0.791   0.183  1.00  0.00    +0.296 HD
ATOM    156  H   UNK A   1       0.123   3.620   1.993  1.00  0.00    +0.068 HD
ATOM    157  H   UNK A   1      -1.205   1.452   1.533  1.00  0.00    +0.041 HD
ATOM    158  H   UNK A   1      -1.728   1.494   3.234  1.00  0.00    +0.041 HD
ATOM    159  H   UNK A   1       1.651   3.783   3.915  1.00  0.00    +0.296 HD
ATOM    160  H   UNK A   1      -9.222   5.850  -2.543  1.00  0.00    +0.064 HD
ATOM    161  H   UNK A   1     -10.264   7.229  -2.618  1.00  0.00    +0.064 HD
ATOM    162  H   UNK A   1      -9.903   4.177  -1.144  1.00  0.00    +0.296 HD
ATOM    163  H   UNK A   1      -5.428   0.055   5.521  1.00  0.00    +0.063 HD
ATOM    164  H   UNK A   1      -6.044  -2.064   4.435  1.00  0.00    +0.063 HD
ATOM    165  H   UNK A   1      -5.698  -2.621   0.649  1.00  0.00    +0.043 HD
ATOM    166  H   UNK A   1      -7.128  -2.557   1.650  1.00  0.00    +0.043 HD
ATOM    167  H   UNK A   1      -5.005  -0.377   0.652  1.00  0.00    +0.063 HD
ATOM    168  H   UNK A   1      -3.622   1.457   0.464  1.00  0.00    +0.058 HD
ATOM    169  H   UNK A   1      -3.510   2.405   4.731  1.00  0.00    +0.028 HD
ATOM    170  H   UNK A   1      -4.876   3.227   3.896  1.00  0.00    +0.028 HD
ATOM    171  H   UNK A   1      -5.147   2.373   5.387  1.00  0.00    +0.028 HD
ENDROOT
TORSDOF 0