REMARK  Generated by RDKit with Gasteiger charges
REMARK  --------------------------------------------------
ROOT
ATOM      1  N   UNK A   1       3.305  -0.607  -7.162  1.00  0.00    -0.131 N 
ATOM      2  C   UNK A   1       2.623  -0.860  -5.871  1.00  0.00    +0.121 C 
ATOM      3  C   UNK A   1       1.281  -0.139  -5.916  1.00  0.00    -0.037 C 
ATOM      4  C   UNK A   1       2.419  -2.384  -5.747  1.00  0.00    +0.262 C 
ATOM      5  O   UNK A   1       1.949  -3.049  -6.680  1.00  0.00    -0.271 OA
ATOM      6  N   UNK A   1       2.896  -2.911  -4.611  1.00  0.00    -0.236 N 
ATOM      7  C   UNK A   1       2.256  -2.378  -3.323  1.00  0.00    +0.143 C 
ATOM      8  C   UNK A   1       1.153  -3.410  -2.933  1.00  0.00    +0.025 C 
ATOM      9  S   UNK A   1      -0.027  -3.248  -1.519  1.00  0.00    -0.154 S 
ATOM     10  C   UNK A   1       3.383  -2.213  -2.220  1.00  0.00    +0.267 C 
ATOM     11  O   UNK A   1       3.715  -3.171  -1.514  1.00  0.00    -0.270 OA
ATOM     12  N   UNK A   1       3.966  -0.993  -2.270  1.00  0.00    -0.236 N 
ATOM     13  C   UNK A   1       3.904  -0.069  -1.047  1.00  0.00    +0.135 C 
ATOM     14  C   UNK A   1       2.447  -0.144  -0.338  1.00  0.00    -0.012 C 
ATOM     15  C   UNK A   1       1.790   1.147   0.305  1.00  0.00    +0.031 C 
ATOM     16  C   UNK A   1       0.206   1.338   0.116  1.00  0.00    +0.242 C 
ATOM     17  O   UNK A   1      -0.282   1.191  -1.007  1.00  0.00    -0.273 OA
ATOM     18  C   UNK A   1       5.226  -0.143  -0.085  1.00  0.00    +0.266 C 
ATOM     19  O   UNK A   1       5.092  -0.365   1.126  1.00  0.00    -0.270 OA
ATOM     20  N   UNK A   1      -0.446   1.718   1.249  1.00  0.00    -0.238 N 
ATOM     21  C   UNK A   1      -1.998   1.898   1.172  1.00  0.00    +0.135 C 
ATOM     22  C   UNK A   1      -2.656   1.319   2.525  1.00  0.00    -0.012 C 
ATOM     23  C   UNK A   1      -3.423  -0.049   2.424  1.00  0.00    +0.031 C 
ATOM     24  C   UNK A   1      -4.097  -0.603   3.753  1.00  0.00    +0.242 C 
ATOM     25  O   UNK A   1      -3.815  -0.148   4.866  1.00  0.00    -0.273 OA
ATOM     26  C   UNK A   1      -2.417   3.462   0.932  1.00  0.00    +0.266 C 
ATOM     27  O   UNK A   1      -1.576   4.370   0.943  1.00  0.00    -0.270 OA
ATOM     28  N   UNK A   1       6.430   0.175  -0.690  1.00  0.00    -0.236 N 
ATOM     29  C   UNK A   1       7.706  -0.216   0.097  1.00  0.00    +0.137 C 
ATOM     30  C   UNK A   1       7.755  -1.788   0.215  1.00  0.00    -0.013 C 
ATOM     31  C   UNK A   1       8.022  -2.478  -1.131  1.00  0.00    -0.060 C 
ATOM     32  C   UNK A   1       8.737  -2.269   1.301  1.00  0.00    -0.051 C 
ATOM     33  C   UNK A   1       8.488  -3.703   1.751  1.00  0.00    -0.065 C 
ATOM     34  C   UNK A   1       9.104   0.351  -0.511  1.00  0.00    +0.267 C 
ATOM     35  O   UNK A   1       9.303   0.477  -1.723  1.00  0.00    -0.270 OA
ATOM     36  N   UNK A   1      -4.948  -1.632   3.493  1.00  0.00    -0.238 N 
ATOM     37  C   UNK A   1      -5.935  -2.002   4.566  1.00  0.00    +0.136 C 
ATOM     38  C   UNK A   1      -6.950  -0.850   4.865  1.00  0.00    -0.015 C 
ATOM     39  C   UNK A   1      -7.761  -0.347   3.666  1.00  0.00    -0.060 C 
ATOM     40  C   UNK A   1      -7.880  -1.189   6.036  1.00  0.00    -0.060 C 
ATOM     41  C   UNK A   1      -6.556  -3.458   4.369  1.00  0.00    +0.267 C 
ATOM     42  O   UNK A   1      -6.021  -4.429   4.926  1.00  0.00    -0.270 OA
ATOM     43  N   UNK A   1      -3.756   3.724   0.842  1.00  0.00    -0.235 N 
ATOM     44  C   UNK A   1      -4.390   3.586  -0.532  1.00  0.00    +0.143 C 
ATOM     45  C   UNK A   1      -5.146   2.223  -0.590  1.00  0.00    +0.027 C 
ATOM     46  S   UNK A   1      -5.534   1.574  -2.290  1.00  0.00    -0.140 S 
ATOM     47  C   UNK A   1      -5.247   4.870  -1.030  1.00  0.00    +0.267 C 
ATOM     48  O   UNK A   1      -4.748   5.600  -1.905  1.00  0.00    -0.270 OA
ATOM     49  N   UNK A   1      10.034   0.676   0.439  1.00  0.00    -0.236 N 
ATOM     50  C   UNK A   1      11.402   0.031   0.383  1.00  0.00    +0.138 C 
ATOM     51  C   UNK A   1      11.822  -0.607  -0.968  1.00  0.00    +0.004 C 
ATOM     52  C   UNK A   1      12.920  -1.662  -0.829  1.00  0.00    -0.045 C 
ATOM     53  C   UNK A   1      14.275  -1.334  -0.947  1.00  0.00    -0.055 C 
ATOM     54  C   UNK A   1      15.257  -2.319  -0.812  1.00  0.00    -0.020 C 
ATOM     55  C   UNK A   1      14.879  -3.629  -0.539  1.00  0.00    +0.115 C 
ATOM     56  O   UNK A   1      15.854  -4.577  -0.379  1.00  0.00    -0.508 OA
ATOM     57  C   UNK A   1      13.534  -3.976  -0.421  1.00  0.00    -0.020 C 
ATOM     58  C   UNK A   1      12.560  -2.990  -0.560  1.00  0.00    -0.055 C 
ATOM     59  C   UNK A   1      12.528   1.030   0.824  1.00  0.00    +0.267 C 
ATOM     60  O   UNK A   1      13.181   1.739   0.052  1.00  0.00    -0.270 OA
ATOM     61  N   UNK A   1      -7.730  -3.517   3.699  1.00  0.00    -0.236 N 
ATOM     62  C   UNK A   1      -7.826  -4.602   2.688  1.00  0.00    +0.131 C 
ATOM     63  C   UNK A   1      -8.062  -5.973   3.334  1.00  0.00    -0.033 C 
ATOM     64  C   UNK A   1      -9.037  -4.338   1.751  1.00  0.00    +0.266 C 
ATOM     65  O   UNK A   1     -10.218  -4.430   2.100  1.00  0.00    -0.270 OA
ATOM     66  N   UNK A   1      -6.503   5.070  -0.509  1.00  0.00    -0.236 N 
ATOM     67  C   UNK A   1      -7.415   5.893  -1.403  1.00  0.00    +0.138 C 
ATOM     68  C   UNK A   1      -7.938   5.048  -2.607  1.00  0.00    +0.004 C 
ATOM     69  C   UNK A   1      -9.019   3.993  -2.394  1.00  0.00    -0.045 C 
ATOM     70  C   UNK A   1     -10.152   3.941  -3.225  1.00  0.00    -0.055 C 
ATOM     71  C   UNK A   1     -11.034   2.853  -3.166  1.00  0.00    -0.020 C 
ATOM     72  C   UNK A   1     -10.776   1.807  -2.287  1.00  0.00    +0.115 C 
ATOM     73  O   UNK A   1     -11.573   0.693  -2.328  1.00  0.00    -0.508 OA
ATOM     74  C   UNK A   1      -9.701   1.871  -1.412  1.00  0.00    -0.020 C 
ATOM     75  C   UNK A   1      -8.837   2.966  -1.464  1.00  0.00    -0.055 C 
ATOM     76  C   UNK A   1      -8.605   6.769  -0.908  1.00  0.00    +0.266 C 
ATOM     77  O   UNK A   1      -9.181   7.530  -1.702  1.00  0.00    -0.270 OA
ATOM     78  N   UNK A   1      12.858   0.936   2.128  1.00  0.00    -0.234 N 
ATOM     79  C   UNK A   1      13.064   2.259   2.763  1.00  0.00    +0.151 C 
ATOM     80  C   UNK A   1      12.376   2.276   4.141  1.00  0.00    -0.009 C 
ATOM     81  C   UNK A   1      10.854   2.196   3.991  1.00  0.00    +0.048 C 
ATOM     82  C   UNK A   1      10.137   2.314   5.305  1.00  0.00    +0.303 C 
ATOM     83  O   UNK A   1      10.470   1.842   6.385  1.00  0.00    -0.252 OA
ATOM     84  O   UNK A   1       8.987   3.009   5.185  1.00  0.00    -0.481 OA
ATOM     85  C   UNK A   1      14.565   2.539   2.864  1.00  0.00    +0.328 C 
ATOM     86  O   UNK A   1      15.157   3.031   3.823  1.00  0.00    -0.250 OA
ATOM     87  O   UNK A   1      15.221   2.256   1.704  1.00  0.00    -0.480 OA
ATOM     88  N   UNK A   1      -8.714  -4.111   0.465  1.00  0.00    -0.233 N 
ATOM     89  C   UNK A   1      -8.634  -2.634   0.158  1.00  0.00    +0.160 C 
ATOM     90  C   UNK A   1      -7.403  -2.320  -0.747  1.00  0.00    +0.028 C 
ATOM     91  S   UNK A   1      -6.673  -0.661  -0.421  1.00  0.00    -0.140 S 
ATOM     92  C   UNK A   1      -9.962  -2.266  -0.541  1.00  0.00    +0.329 C 
ATOM     93  O   UNK A   1     -10.135  -1.473  -1.464  1.00  0.00    -0.250 OA
ATOM     94  O   UNK A   1     -11.041  -2.925  -0.016  1.00  0.00    -0.480 OA
ATOM     95  N   UNK A   1      -8.916   6.681   0.397  1.00  0.00    -0.238 N 
ATOM     96  C   UNK A   1     -10.185   7.334   0.771  1.00  0.00    +0.140 C 
ATOM     97  C   UNK A   1      -9.918   8.762   1.205  1.00  0.00    +0.325 C 
ATOM     98  O   UNK A   1     -10.788   9.591   1.472  1.00  0.00    -0.250 OA
ATOM     99  O   UNK A   1      -8.596   9.021   1.356  1.00  0.00    -0.480 OA
ATOM    100  C   UNK A   1      -3.781  -2.636  -4.206  1.00  0.00    -0.059 C 
ATOM    101  C   UNK A   1      -2.524  -2.580  -3.602  1.00  0.00    -0.058 C 
ATOM    102  C   UNK A   1      -2.320  -1.827  -2.445  1.00  0.00    -0.038 C 
ATOM    103  C   UNK A   1      -0.910  -1.664  -1.863  1.00  0.00    +0.019 C 
ATOM    104  C   UNK A   1      -3.427  -1.112  -1.911  1.00  0.00    -0.053 C 
ATOM    105  C   UNK A   1      -4.716  -1.127  -2.516  1.00  0.00    -0.022 C 
ATOM    106  C   UNK A   1      -5.856  -0.230  -1.990  1.00  0.00    +0.076 C 
ATOM    107  C   UNK A   1      -4.874  -1.913  -3.691  1.00  0.00    -0.046 C 
ATOM    108  C   UNK A   1      -6.159  -1.954  -4.470  1.00  0.00    -0.039 C 
ATOM    109  H   UNK A   1       3.256  -0.458  -5.073  1.00  0.00    +0.060 HD
ATOM    110  H   UNK A   1       0.703  -0.304  -5.001  1.00  0.00    +0.025 HD
ATOM    111  H   UNK A   1       1.417   0.941  -6.032  1.00  0.00    +0.025 HD
ATOM    112  H   UNK A   1       0.662  -0.498  -6.748  1.00  0.00    +0.025 HD
ATOM    113  H   UNK A   1       1.771  -1.404  -3.441  1.00  0.00    +0.067 HD
ATOM    114  H   UNK A   1       0.516  -3.580  -3.808  1.00  0.00    +0.041 HD
ATOM    115  H   UNK A   1       1.644  -4.376  -2.749  1.00  0.00    +0.041 HD
ATOM    116  H   UNK A   1       3.947   0.959  -1.444  1.00  0.00    +0.066 HD
ATOM    117  H   UNK A   1       1.731  -0.491  -1.088  1.00  0.00    +0.030 HD
ATOM    118  H   UNK A   1       2.480  -0.923   0.433  1.00  0.00    +0.030 HD
ATOM    119  H   UNK A   1       2.244   2.039  -0.143  1.00  0.00    +0.037 HD
ATOM    120  H   UNK A   1       2.034   1.164   1.375  1.00  0.00    +0.037 HD
ATOM    121  H   UNK A   1      -2.400   1.334   0.323  1.00  0.00    +0.066 HD
ATOM    122  H   UNK A   1      -3.365   2.052   2.929  1.00  0.00    +0.030 HD
ATOM    123  H   UNK A   1      -1.879   1.216   3.295  1.00  0.00    +0.030 HD
ATOM    124  H   UNK A   1      -4.220   0.069   1.681  1.00  0.00    +0.037 HD
ATOM    125  H   UNK A   1      -2.723  -0.816   2.069  1.00  0.00    +0.037 HD
ATOM    126  H   UNK A   1       7.621   0.216   1.105  1.00  0.00    +0.066 HD
ATOM    127  H   UNK A   1       6.765  -2.133   0.539  1.00  0.00    +0.033 HD
ATOM    128  H   UNK A   1       7.349  -2.106  -1.911  1.00  0.00    +0.023 HD
ATOM    129  H   UNK A   1       9.048  -2.326  -1.473  1.00  0.00    +0.023 HD
ATOM    130  H   UNK A   1       7.856  -3.557  -1.056  1.00  0.00    +0.023 HD
ATOM    131  H   UNK A   1       9.764  -2.207   0.936  1.00  0.00    +0.027 HD
ATOM    132  H   UNK A   1       8.660  -1.621   2.183  1.00  0.00    +0.027 HD
ATOM    133  H   UNK A   1       7.481  -3.816   2.165  1.00  0.00    +0.023 HD
ATOM    134  H   UNK A   1       9.204  -3.976   2.534  1.00  0.00    +0.023 HD
ATOM    135  H   UNK A   1       8.609  -4.414   0.930  1.00  0.00    +0.023 HD
ATOM    136  H   UNK A   1      -5.373  -2.126   5.507  1.00  0.00    +0.066 HD
ATOM    137  H   UNK A   1      -6.361   0.014   5.203  1.00  0.00    +0.032 HD
ATOM    138  H   UNK A   1      -8.294   0.573   3.934  1.00  0.00    +0.023 HD
ATOM    139  H   UNK A   1      -8.516  -1.065   3.337  1.00  0.00    +0.023 HD
ATOM    140  H   UNK A   1      -7.118  -0.106   2.816  1.00  0.00    +0.023 HD
ATOM    141  H   UNK A   1      -8.621  -1.949   5.771  1.00  0.00    +0.023 HD
ATOM    142  H   UNK A   1      -7.313  -1.550   6.899  1.00  0.00    +0.023 HD
ATOM    143  H   UNK A   1      -8.429  -0.296   6.359  1.00  0.00    +0.023 HD
ATOM    144  H   UNK A   1      -3.583   3.521  -1.279  1.00  0.00    +0.067 HD
ATOM    145  H   UNK A   1      -4.529   1.455  -0.123  1.00  0.00    +0.041 HD
ATOM    146  H   UNK A   1      -6.073   2.287  -0.014  1.00  0.00    +0.041 HD
ATOM    147  H   UNK A   1      11.404  -0.778   1.128  1.00  0.00    +0.066 HD
ATOM    148  H   UNK A   1      12.140   0.157  -1.688  1.00  0.00    +0.034 HD
ATOM    149  H   UNK A   1      10.988  -1.129  -1.445  1.00  0.00    +0.034 HD
ATOM    150  H   UNK A   1      14.545  -0.295  -1.119  1.00  0.00    +0.063 HD
ATOM    151  H   UNK A   1      16.300  -2.048  -0.886  1.00  0.00    +0.066 HD
ATOM    152  H   UNK A   1      15.389  -5.342   0.000  1.00  0.00    +0.293 HD
ATOM    153  H   UNK A   1      13.210  -4.987  -0.209  1.00  0.00    +0.066 HD
ATOM    154  H   UNK A   1      11.502  -3.232  -0.451  1.00  0.00    +0.063 HD
ATOM    155  H   UNK A   1      -6.917  -4.661   2.072  1.00  0.00    +0.065 HD
ATOM    156  H   UNK A   1      -8.863  -5.934   4.082  1.00  0.00    +0.026 HD
ATOM    157  H   UNK A   1      -8.350  -6.717   2.581  1.00  0.00    +0.026 HD
ATOM    158  H   UNK A   1      -7.158  -6.346   3.825  1.00  0.00    +0.026 HD
ATOM    159  H   UNK A   1      -6.787   6.684  -1.850  1.00  0.00    +0.066 HD
ATOM    160  H   UNK A   1      -7.097   4.538  -3.099  1.00  0.00    +0.034 HD
ATOM    161  H   UNK A   1      -8.314   5.753  -3.362  1.00  0.00    +0.034 HD
ATOM    162  H   UNK A   1     -10.317   4.744  -3.935  1.00  0.00    +0.063 HD
ATOM    163  H   UNK A   1     -11.891   2.814  -3.826  1.00  0.00    +0.066 HD
ATOM    164  H   UNK A   1     -11.028  -0.028  -1.915  1.00  0.00    +0.293 HD
ATOM    165  H   UNK A   1      -9.471   1.077  -0.706  1.00  0.00    +0.066 HD
ATOM    166  H   UNK A   1      -7.977   2.994  -0.795  1.00  0.00    +0.063 HD
ATOM    167  H   UNK A   1      12.644   3.093   2.180  1.00  0.00    +0.068 HD
ATOM    168  H   UNK A   1      12.743   1.453   4.771  1.00  0.00    +0.030 HD
ATOM    169  H   UNK A   1      12.634   3.204   4.670  1.00  0.00    +0.030 HD
ATOM    170  H   UNK A   1      10.519   3.011   3.339  1.00  0.00    +0.039 HD
ATOM    171  H   UNK A   1      10.540   1.248   3.542  1.00  0.00    +0.039 HD
ATOM    172  H   UNK A   1       8.364   2.646   5.842  1.00  0.00    +0.296 HD
ATOM    173  H   UNK A   1      14.492   1.899   1.110  1.00  0.00    +0.296 HD
ATOM    174  H   UNK A   1      -8.582  -2.030   1.073  1.00  0.00    +0.068 HD
ATOM    175  H   UNK A   1      -6.602  -3.051  -0.590  1.00  0.00    +0.041 HD
ATOM    176  H   UNK A   1      -7.699  -2.373  -1.798  1.00  0.00    +0.041 HD
ATOM    177  H   UNK A   1     -10.631  -3.495   0.697  1.00  0.00    +0.296 HD
ATOM    178  H   UNK A   1     -10.942   7.340  -0.021  1.00  0.00    +0.064 HD
ATOM    179  H   UNK A   1     -10.626   6.821   1.635  1.00  0.00    +0.064 HD
ATOM    180  H   UNK A   1      -8.175   8.164   1.019  1.00  0.00    +0.296 HD
ATOM    181  H   UNK A   1      -3.879  -3.226  -5.109  1.00  0.00    +0.063 HD
ATOM    182  H   UNK A   1      -1.687  -3.103  -4.053  1.00  0.00    +0.063 HD
ATOM    183  H   UNK A   1      -0.316  -1.031  -2.528  1.00  0.00    +0.043 HD
ATOM    184  H   UNK A   1      -0.993  -1.169  -0.892  1.00  0.00    +0.043 HD
ATOM    185  H   UNK A   1      -3.260  -0.480  -1.032  1.00  0.00    +0.063 HD
ATOM    186  H   UNK A   1      -6.691  -0.359  -2.682  1.00  0.00    +0.058 HD
ATOM    187  H   UNK A   1      -6.088  -2.639  -5.323  1.00  0.00    +0.028 HD
ATOM    188  H   UNK A   1      -6.984  -2.314  -3.852  1.00  0.00    +0.028 HD
ATOM    189  H   UNK A   1      -6.393  -0.963  -4.870  1.00  0.00    +0.028 HD
ENDROOT
TORSDOF 0