MODEL 1
REMARK VINA RESULT:      -0.0      0.000      0.000
REMARK  Generated by RDKit with Gasteiger charges
REMARK  --------------------------------------------------
ROOT
ATOM      1  N   UNK A   1     -13.649  14.840   7.288  1.00  0.00    -0.131 N 
ATOM      2  C   UNK A   1     -13.996  13.929   6.177  1.00  0.00    +0.121 C 
ATOM      3  C   UNK A   1     -14.397  12.596   6.794  1.00  0.00    -0.037 C 
ATOM      4  C   UNK A   1     -15.195  14.552   5.439  1.00  0.00    +0.262 C 
ATOM      5  O   UNK A   1     -16.173  14.942   6.103  1.00  0.00    -0.271 OA
ATOM      6  N   UNK A   1     -15.132  14.718   4.110  1.00  0.00    -0.236 N 
ATOM      7  C   UNK A   1     -14.142  13.994   3.235  1.00  0.00    +0.143 C 
ATOM      8  C   UNK A   1     -12.767  14.754   3.047  1.00  0.00    +0.025 C 
ATOM      9  S   UNK A   1     -12.818  16.181   1.819  1.00  0.00    -0.154 S 
ATOM     10  C   UNK A   1     -14.102  12.411   3.416  1.00  0.00    +0.267 C 
ATOM     11  O   UNK A   1     -15.134  11.742   3.255  1.00  0.00    -0.270 OA
ATOM     12  N   UNK A   1     -12.895  11.924   3.764  1.00  0.00    -0.236 N 
ATOM     13  C   UNK A   1     -12.398  10.732   2.959  1.00  0.00    +0.136 C 
ATOM     14  C   UNK A   1     -12.069  11.211   1.498  1.00  0.00    -0.015 C 
ATOM     15  C   UNK A   1     -12.225  10.105   0.451  1.00  0.00    -0.060 C 
ATOM     16  C   UNK A   1     -10.719  11.916   1.342  1.00  0.00    -0.060 C 
ATOM     17  C   UNK A   1     -11.221   9.979   3.759  1.00  0.00    +0.267 C 
ATOM     18  O   UNK A   1     -11.189   9.961   4.997  1.00  0.00    -0.270 OA
ATOM     19  N   UNK A   1     -10.430   9.229   2.954  1.00  0.00    -0.236 N 
ATOM     20  C   UNK A   1      -8.957   9.175   3.320  1.00  0.00    +0.134 C 
ATOM     21  C   UNK A   1      -8.768   8.143   4.464  1.00  0.00    -0.021 C 
ATOM     22  C   UNK A   1      -7.324   8.009   4.959  1.00  0.00    -0.050 C 
ATOM     23  C   UNK A   1      -7.273   7.590   6.436  1.00  0.00    -0.041 C 
ATOM     24  C   UNK A   1      -7.499   8.767   7.386  1.00  0.00    -0.008 C 
ATOM     25  N   UNK A   1      -6.279   9.568   7.574  1.00  0.00    -0.330 N 
ATOM     26  C   UNK A   1      -8.097   8.692   2.070  1.00  0.00    +0.266 C 
ATOM     27  O   UNK A   1      -8.432   7.653   1.473  1.00  0.00    -0.270 OA
ATOM     28  N   UNK A   1      -6.881   9.277   1.858  1.00  0.00    -0.236 N 
ATOM     29  C   UNK A   1      -6.749  10.793   1.824  1.00  0.00    +0.138 C 
ATOM     30  C   UNK A   1      -6.023  11.301   3.111  1.00  0.00    +0.004 C 
ATOM     31  C   UNK A   1      -4.513  11.105   3.167  1.00  0.00    -0.045 C 
ATOM     32  C   UNK A   1      -3.667  12.179   2.865  1.00  0.00    -0.055 C 
ATOM     33  C   UNK A   1      -2.298  11.988   2.712  1.00  0.00    -0.020 C 
ATOM     34  C   UNK A   1      -1.762  10.715   2.868  1.00  0.00    +0.115 C 
ATOM     35  O   UNK A   1      -0.442  10.504   2.563  1.00  0.00    -0.508 OA
ATOM     36  C   UNK A   1      -2.570   9.636   3.210  1.00  0.00    -0.020 C 
ATOM     37  C   UNK A   1      -3.947   9.837   3.355  1.00  0.00    -0.055 C 
ATOM     38  C   UNK A   1      -6.000  11.420   0.554  1.00  0.00    +0.267 C 
ATOM     39  O   UNK A   1      -5.457  10.722  -0.307  1.00  0.00    -0.270 OA
ATOM     40  N   UNK A   1      -6.033  12.783   0.593  1.00  0.00    -0.236 N 
ATOM     41  C   UNK A   1      -5.517  13.565  -0.597  1.00  0.00    +0.134 C 
ATOM     42  C   UNK A   1      -6.592  13.485  -1.716  1.00  0.00    -0.020 C 
ATOM     43  C   UNK A   1      -6.094  13.730  -3.144  1.00  0.00    -0.033 C 
ATOM     44  C   UNK A   1      -5.028  12.737  -3.605  1.00  0.00    +0.018 C 
ATOM     45  N   UNK A   1      -4.465  13.190  -4.911  1.00  0.00    -0.357 N 
ATOM     46  C   UNK A   1      -3.181  12.852  -5.178  1.00  0.00    +0.185 C 
ATOM     47  N   UNK A   1      -2.730  11.644  -5.260  1.00  0.00    -0.270 N 
ATOM     48  N   UNK A   1      -2.384  13.899  -5.496  1.00  0.00    -0.370 N 
ATOM     49  C   UNK A   1      -5.236  15.116  -0.245  1.00  0.00    +0.266 C 
ATOM     50  O   UNK A   1      -5.689  15.627   0.780  1.00  0.00    -0.270 OA
ATOM     51  N   UNK A   1      -4.515  15.738  -1.219  1.00  0.00    -0.235 N 
ATOM     52  C   UNK A   1      -4.562  17.268  -1.394  1.00  0.00    +0.143 C 
ATOM     53  C   UNK A   1      -5.933  17.948  -1.001  1.00  0.00    +0.027 C 
ATOM     54  S   UNK A   1      -6.633  19.099  -2.338  1.00  0.00    -0.140 S 
ATOM     55  C   UNK A   1      -3.297  18.015  -0.754  1.00  0.00    +0.267 C 
ATOM     56  O   UNK A   1      -3.028  17.910   0.447  1.00  0.00    -0.270 OA
ATOM     57  N   UNK A   1      -2.580  18.749  -1.666  1.00  0.00    -0.236 N 
ATOM     58  C   UNK A   1      -1.565  19.711  -1.072  1.00  0.00    +0.131 C 
ATOM     59  C   UNK A   1      -0.280  18.939  -0.730  1.00  0.00    -0.033 C 
ATOM     60  C   UNK A   1      -1.120  20.890  -2.049  1.00  0.00    +0.266 C 
ATOM     61  O   UNK A   1      -0.816  20.675  -3.232  1.00  0.00    -0.270 OA
ATOM     62  N   UNK A   1      -0.880  22.081  -1.420  1.00  0.00    -0.236 N 
ATOM     63  C   UNK A   1      -2.038  23.054  -1.560  1.00  0.00    +0.131 C 
ATOM     64  C   UNK A   1      -3.075  22.779  -0.452  1.00  0.00    -0.033 C 
ATOM     65  C   UNK A   1      -1.670  24.590  -1.453  1.00  0.00    +0.266 C 
ATOM     66  O   UNK A   1      -0.678  25.022  -0.850  1.00  0.00    -0.270 OA
ATOM     67  N   UNK A   1      -2.606  25.354  -2.064  1.00  0.00    -0.236 N 
ATOM     68  C   UNK A   1      -2.942  26.658  -1.405  1.00  0.00    +0.143 C 
ATOM     69  C   UNK A   1      -2.199  27.790  -2.163  1.00  0.00    +0.058 C 
ATOM     70  C   UNK A   1      -2.683  28.058  -3.586  1.00  0.00    +0.220 C 
ATOM     71  O   UNK A   1      -2.400  29.111  -4.186  1.00  0.00    -0.275 OA
ATOM     72  N   UNK A   1      -3.364  27.042  -4.205  1.00  0.00    -0.370 N 
ATOM     73  C   UNK A   1      -4.442  27.131  -1.267  1.00  0.00    +0.267 C 
ATOM     74  O   UNK A   1      -4.664  28.146  -0.581  1.00  0.00    -0.270 OA
ATOM     75  N   UNK A   1      -5.325  26.473  -2.033  1.00  0.00    -0.236 N 
ATOM     76  C   UNK A   1      -6.781  26.778  -1.835  1.00  0.00    +0.134 C 
ATOM     77  C   UNK A   1      -7.252  27.851  -2.847  1.00  0.00    -0.021 C 
ATOM     78  C   UNK A   1      -7.095  29.307  -2.392  1.00  0.00    -0.050 C 
ATOM     79  C   UNK A   1      -7.757  29.689  -1.063  1.00  0.00    -0.041 C 
ATOM     80  C   UNK A   1      -9.182  29.177  -0.854  1.00  0.00    -0.008 C 
ATOM     81  N   UNK A   1     -10.158  29.710  -1.834  1.00  0.00    -0.330 N 
ATOM     82  C   UNK A   1      -7.828  25.580  -1.916  1.00  0.00    +0.266 C 
ATOM     83  O   UNK A   1      -8.646  25.444  -0.996  1.00  0.00    -0.270 OA
ATOM     84  N   UNK A   1      -7.833  24.929  -3.097  1.00  0.00    -0.235 N 
ATOM     85  C   UNK A   1      -8.770  23.762  -3.300  1.00  0.00    +0.143 C 
ATOM     86  C   UNK A   1      -8.593  22.593  -2.242  1.00  0.00    +0.027 C 
ATOM     87  S   UNK A   1      -9.126  20.893  -2.862  1.00  0.00    -0.140 S 
ATOM     88  C   UNK A   1     -10.250  24.218  -3.598  1.00  0.00    +0.267 C 
ATOM     89  O   UNK A   1     -11.236  23.846  -2.962  1.00  0.00    -0.270 OA
ATOM     90  N   UNK A   1     -10.380  24.909  -4.754  1.00  0.00    -0.238 N 
ATOM     91  C   UNK A   1     -11.516  25.850  -4.780  1.00  0.00    +0.140 C 
ATOM     92  C   UNK A   1     -12.765  25.222  -5.376  1.00  0.00    +0.325 C 
ATOM     93  O   UNK A   1     -13.556  25.814  -6.114  1.00  0.00    -0.250 OA
ATOM     94  O   UNK A   1     -13.005  23.960  -4.963  1.00  0.00    -0.480 OA
ATOM     95  C   UNK A   1     -10.652  16.516  -2.230  1.00  0.00    -0.059 C 
ATOM     96  C   UNK A   1     -11.056  16.205  -0.932  1.00  0.00    -0.058 C 
ATOM     97  C   UNK A   1     -10.629  16.974   0.148  1.00  0.00    -0.038 C 
ATOM     98  C   UNK A   1     -10.990  16.513   1.566  1.00  0.00    +0.019 C 
ATOM     99  C   UNK A   1      -9.734  18.059  -0.125  1.00  0.00    -0.053 C 
ATOM    100  C   UNK A   1      -9.301  18.404  -1.451  1.00  0.00    -0.022 C 
ATOM    101  C   UNK A   1      -8.308  19.606  -1.646  1.00  0.00    +0.076 C 
ATOM    102  C   UNK A   1      -9.788  17.597  -2.517  1.00  0.00    -0.046 C 
ATOM    103  C   UNK A   1      -9.459  17.808  -3.970  1.00  0.00    -0.039 C 
ATOM    104  H   UNK A   1     -13.108  13.809   5.567  1.00  0.00    +0.060 HD
ATOM    105  H   UNK A   1     -13.534  12.109   7.272  1.00  0.00    +0.025 HD
ATOM    106  H   UNK A   1     -14.812  11.914   6.041  1.00  0.00    +0.025 HD
ATOM    107  H   UNK A   1     -15.178  12.716   7.551  1.00  0.00    +0.025 HD
ATOM    108  H   UNK A   1     -14.580  14.053   2.223  1.00  0.00    +0.067 HD
ATOM    109  H   UNK A   1     -12.014  14.074   2.662  1.00  0.00    +0.041 HD
ATOM    110  H   UNK A   1     -12.408  15.173   3.994  1.00  0.00    +0.041 HD
ATOM    111  H   UNK A   1     -13.189   9.974   2.918  1.00  0.00    +0.066 HD
ATOM    112  H   UNK A   1     -12.825  11.959   1.213  1.00  0.00    +0.032 HD
ATOM    113  H   UNK A   1     -11.501   9.295   0.587  1.00  0.00    +0.023 HD
ATOM    114  H   UNK A   1     -13.226   9.662   0.497  1.00  0.00    +0.023 HD
ATOM    115  H   UNK A   1     -12.093  10.512  -0.555  1.00  0.00    +0.023 HD
ATOM    116  H   UNK A   1      -9.905  11.215   1.138  1.00  0.00    +0.023 HD
ATOM    117  H   UNK A   1     -10.450  12.499   2.220  1.00  0.00    +0.023 HD
ATOM    118  H   UNK A   1     -10.770  12.591   0.482  1.00  0.00    +0.023 HD
ATOM    119  H   UNK A   1      -8.603  10.151   3.658  1.00  0.00    +0.066 HD
ATOM    120  H   UNK A   1      -9.125   7.151   4.149  1.00  0.00    +0.029 HD
ATOM    121  H   UNK A   1      -9.401   8.424   5.310  1.00  0.00    +0.029 HD
ATOM    122  H   UNK A   1      -6.811   7.249   4.357  1.00  0.00    +0.027 HD
ATOM    123  H   UNK A   1      -6.772   8.938   4.825  1.00  0.00    +0.027 HD
ATOM    124  H   UNK A   1      -8.034   6.818   6.621  1.00  0.00    +0.028 HD
ATOM    125  H   UNK A   1      -6.301   7.122   6.645  1.00  0.00    +0.028 HD
ATOM    126  H   UNK A   1      -8.304   9.417   7.026  1.00  0.00    +0.043 HD
ATOM    127  H   UNK A   1      -7.802   8.372   8.359  1.00  0.00    +0.043 HD
ATOM    128  H   UNK A   1      -6.577  10.487   7.907  1.00  0.00    +0.118 HD
ATOM    129  H   UNK A   1      -5.944   9.797   6.627  1.00  0.00    +0.118 HD
ATOM    130  H   UNK A   1      -7.752  11.243   1.821  1.00  0.00    +0.066 HD
ATOM    131  H   UNK A   1      -6.237  12.369   3.229  1.00  0.00    +0.034 HD
ATOM    132  H   UNK A   1      -6.457  10.852   4.009  1.00  0.00    +0.034 HD
ATOM    133  H   UNK A   1      -4.094  13.159   2.635  1.00  0.00    +0.063 HD
ATOM    134  H   UNK A   1      -1.716  12.843   2.386  1.00  0.00    +0.066 HD
ATOM    135  H   UNK A   1      -0.294  11.170   1.857  1.00  0.00    +0.293 HD
ATOM    136  H   UNK A   1      -2.185   8.625   3.256  1.00  0.00    +0.066 HD
ATOM    137  H   UNK A   1      -4.623   8.993   3.486  1.00  0.00    +0.063 HD
ATOM    138  H   UNK A   1      -4.558  13.149  -0.918  1.00  0.00    +0.066 HD
ATOM    139  H   UNK A   1      -7.088  12.505  -1.704  1.00  0.00    +0.029 HD
ATOM    140  H   UNK A   1      -7.392  14.213  -1.508  1.00  0.00    +0.029 HD
ATOM    141  H   UNK A   1      -6.952  13.659  -3.829  1.00  0.00    +0.029 HD
ATOM    142  H   UNK A   1      -5.728  14.759  -3.248  1.00  0.00    +0.029 HD
ATOM    143  H   UNK A   1      -4.210  12.666  -2.881  1.00  0.00    +0.049 HD
ATOM    144  H   UNK A   1      -5.472  11.743  -3.719  1.00  0.00    +0.049 HD
ATOM    145  H   UNK A   1      -4.567  14.205  -4.887  1.00  0.00    +0.163 HD
ATOM    146  H   UNK A   1      -1.737  11.707  -5.475  1.00  0.00    +0.191 HD
ATOM    147  H   UNK A   1      -2.793  14.791  -5.203  1.00  0.00    +0.159 HD
ATOM    148  H   UNK A   1      -1.526  13.842  -4.958  1.00  0.00    +0.159 HD
ATOM    149  H   UNK A   1      -4.458  17.411  -2.484  1.00  0.00    +0.067 HD
ATOM    150  H   UNK A   1      -5.838  18.552  -0.098  1.00  0.00    +0.041 HD
ATOM    151  H   UNK A   1      -6.719  17.202  -0.848  1.00  0.00    +0.041 HD
ATOM    152  H   UNK A   1      -1.948  20.167  -0.150  1.00  0.00    +0.065 HD
ATOM    153  H   UNK A   1       0.439  19.580  -0.212  1.00  0.00    +0.026 HD
ATOM    154  H   UNK A   1       0.206  18.565  -1.636  1.00  0.00    +0.026 HD
ATOM    155  H   UNK A   1      -0.476  18.078  -0.091  1.00  0.00    +0.026 HD
ATOM    156  H   UNK A   1      -2.522  22.919  -2.533  1.00  0.00    +0.065 HD
ATOM    157  H   UNK A   1      -3.898  23.498  -0.484  1.00  0.00    +0.026 HD
ATOM    158  H   UNK A   1      -3.520  21.786  -0.540  1.00  0.00    +0.026 HD
ATOM    159  H   UNK A   1      -2.604  22.844   0.538  1.00  0.00    +0.026 HD
ATOM    160  H   UNK A   1      -2.584  26.650  -0.362  1.00  0.00    +0.066 HD
ATOM    161  H   UNK A   1      -1.127  27.566  -2.230  1.00  0.00    +0.039 HD
ATOM    162  H   UNK A   1      -2.294  28.737  -1.611  1.00  0.00    +0.039 HD
ATOM    163  H   UNK A   1      -4.286  26.915  -3.735  1.00  0.00    +0.159 HD
ATOM    164  H   UNK A   1      -3.026  26.143  -3.803  1.00  0.00    +0.159 HD
ATOM    165  H   UNK A   1      -6.948  27.146  -0.815  1.00  0.00    +0.066 HD
ATOM    166  H   UNK A   1      -8.313  27.702  -3.093  1.00  0.00    +0.029 HD
ATOM    167  H   UNK A   1      -6.712  27.743  -3.803  1.00  0.00    +0.029 HD
ATOM    168  H   UNK A   1      -6.030  29.559  -2.329  1.00  0.00    +0.027 HD
ATOM    169  H   UNK A   1      -7.505  29.952  -3.182  1.00  0.00    +0.027 HD
ATOM    170  H   UNK A   1      -7.751  30.787  -0.981  1.00  0.00    +0.028 HD
ATOM    171  H   UNK A   1      -7.152  29.319  -0.230  1.00  0.00    +0.028 HD
ATOM    172  H   UNK A   1      -9.535  29.460   0.143  1.00  0.00    +0.043 HD
ATOM    173  H   UNK A   1      -9.199  28.087  -0.899  1.00  0.00    +0.043 HD
ATOM    174  H   UNK A   1     -10.914  29.013  -1.819  1.00  0.00    +0.118 HD
ATOM    175  H   UNK A   1      -9.731  29.497  -2.744  1.00  0.00    +0.118 HD
ATOM    176  H   UNK A   1      -8.449  23.300  -4.252  1.00  0.00    +0.067 HD
ATOM    177  H   UNK A   1      -9.191  22.788  -1.352  1.00  0.00    +0.041 HD
ATOM    178  H   UNK A   1      -7.537  22.517  -1.947  1.00  0.00    +0.041 HD
ATOM    179  H   UNK A   1     -11.786  26.265  -3.797  1.00  0.00    +0.064 HD
ATOM    180  H   UNK A   1     -11.257  26.698  -5.421  1.00  0.00    +0.064 HD
ATOM    181  H   UNK A   1     -12.232  23.746  -4.356  1.00  0.00    +0.296 HD
ATOM    182  H   UNK A   1     -10.998  15.866  -3.030  1.00  0.00    +0.063 HD
ATOM    183  H   UNK A   1     -11.663  15.321  -0.758  1.00  0.00    +0.063 HD
ATOM    184  H   UNK A   1     -10.726  17.289   2.287  1.00  0.00    +0.043 HD
ATOM    185  H   UNK A   1     -10.429  15.601   1.793  1.00  0.00    +0.043 HD
ATOM    186  H   UNK A   1      -9.324  18.614   0.717  1.00  0.00    +0.063 HD
ATOM    187  H   UNK A   1      -8.159  20.130  -0.691  1.00  0.00    +0.058 HD
ATOM    188  H   UNK A   1      -9.788  16.954  -4.570  1.00  0.00    +0.028 HD
ATOM    189  H   UNK A   1      -8.382  17.878  -4.152  1.00  0.00    +0.028 HD
ATOM    190  H   UNK A   1      -9.979  18.683  -4.370  1.00  0.00    +0.028 HD
ENDROOT
TORSDOF 0
ENDMDL
