REMARK  Generated by RDKit with Gasteiger charges
REMARK  --------------------------------------------------
ROOT
ATOM      1  N   UNK A   1     -10.415   7.492  -0.288  1.00  0.00    -0.131 N 
ATOM      2  C   UNK A   1      -9.314   6.499  -0.408  1.00  0.00    +0.121 C 
ATOM      3  C   UNK A   1      -8.592   6.801  -1.713  1.00  0.00    -0.037 C 
ATOM      4  C   UNK A   1      -8.367   6.680   0.800  1.00  0.00    +0.262 C 
ATOM      5  O   UNK A   1      -8.276   7.800   1.329  1.00  0.00    -0.271 OA
ATOM      6  N   UNK A   1      -7.631   5.629   1.205  1.00  0.00    -0.236 N 
ATOM      7  C   UNK A   1      -7.710   4.297   0.506  1.00  0.00    +0.143 C 
ATOM      8  C   UNK A   1      -6.467   3.390   0.842  1.00  0.00    +0.025 C 
ATOM      9  S   UNK A   1      -4.791   3.993   0.252  1.00  0.00    -0.154 S 
ATOM     10  C   UNK A   1      -8.983   3.486   0.957  1.00  0.00    +0.267 C 
ATOM     11  O   UNK A   1      -9.352   3.443   2.134  1.00  0.00    -0.270 OA
ATOM     12  N   UNK A   1      -9.607   2.893  -0.085  1.00  0.00    -0.239 N 
ATOM     13  C   UNK A   1      -9.722   1.413   0.075  1.00  0.00    +0.124 C 
ATOM     14  C   UNK A   1     -10.690   0.723  -0.933  1.00  0.00    +0.263 C 
ATOM     15  O   UNK A   1     -11.875   1.065  -1.043  1.00  0.00    -0.271 OA
ATOM     16  N   UNK A   1     -10.140  -0.275  -1.659  1.00  0.00    -0.234 N 
ATOM     17  C   UNK A   1      -9.830  -1.522  -0.889  1.00  0.00    +0.157 C 
ATOM     18  C   UNK A   1     -11.131  -2.292  -0.559  1.00  0.00    +0.075 C 
ATOM     19  O   UNK A   1     -10.902  -3.406   0.327  1.00  0.00    -0.394 OA
ATOM     20  C   UNK A   1      -8.918  -2.500  -1.725  1.00  0.00    +0.269 C 
ATOM     21  O   UNK A   1      -9.004  -2.614  -2.950  1.00  0.00    -0.270 OA
ATOM     22  N   UNK A   1      -8.217  -3.365  -0.957  1.00  0.00    -0.236 N 
ATOM     23  C   UNK A   1      -6.995  -2.780  -0.303  1.00  0.00    +0.138 C 
ATOM     24  C   UNK A   1      -7.093  -2.822   1.255  1.00  0.00    +0.023 C 
ATOM     25  C   UNK A   1      -7.237  -4.155   1.947  1.00  0.00    +0.061 C 
ATOM     26  C   UNK A   1      -7.457  -5.406   1.411  1.00  0.00    +0.024 C 
ATOM     27  N   UNK A   1      -7.303  -6.283   2.435  1.00  0.00    -0.351 N 
ATOM     28  C   UNK A   1      -7.126  -5.559   3.575  1.00  0.00    +0.092 C 
ATOM     29  N   UNK A   1      -7.134  -4.269   3.334  1.00  0.00    -0.242 N 
ATOM     30  C   UNK A   1      -5.657  -3.477  -0.751  1.00  0.00    +0.248 C 
ATOM     31  O   UNK A   1      -5.486  -4.700  -0.647  1.00  0.00    -0.272 OA
ATOM     32  N   UNK A   1      -4.629  -2.636  -1.220  1.00  0.00    -0.329 N 
ATOM     33  C   UNK A   1      -4.973  -1.568  -2.148  1.00  0.00    +0.021 C 
ATOM     34  C   UNK A   1      -3.989  -1.696  -3.316  1.00  0.00    -0.033 C 
ATOM     35  C   UNK A   1      -3.309  -3.050  -3.099  1.00  0.00    -0.022 C 
ATOM     36  C   UNK A   1      -3.281  -3.171  -1.569  1.00  0.00    +0.113 C 
ATOM     37  C   UNK A   1      -2.032  -2.341  -1.054  1.00  0.00    +0.264 C 
ATOM     38  O   UNK A   1      -2.090  -1.114  -0.963  1.00  0.00    -0.271 OA
ATOM     39  N   UNK A   1      -0.972  -3.139  -0.824  1.00  0.00    -0.235 N 
ATOM     40  C   UNK A   1       0.427  -2.561  -1.005  1.00  0.00    +0.143 C 
ATOM     41  C   UNK A   1       0.757  -1.300  -0.118  1.00  0.00    +0.027 C 
ATOM     42  S   UNK A   1       1.081   0.299  -1.071  1.00  0.00    -0.140 S 
ATOM     43  C   UNK A   1       1.431  -3.740  -0.571  1.00  0.00    +0.267 C 
ATOM     44  O   UNK A   1       1.439  -4.157   0.595  1.00  0.00    -0.270 OA
ATOM     45  N   UNK A   1       2.235  -4.177  -1.581  1.00  0.00    -0.234 N 
ATOM     46  C   UNK A   1       3.408  -5.045  -1.126  1.00  0.00    +0.157 C 
ATOM     47  C   UNK A   1       2.923  -6.474  -0.787  1.00  0.00    +0.075 C 
ATOM     48  O   UNK A   1       1.907  -6.913  -1.710  1.00  0.00    -0.394 OA
ATOM     49  C   UNK A   1       4.584  -5.198  -2.173  1.00  0.00    +0.269 C 
ATOM     50  O   UNK A   1       4.384  -5.416  -3.372  1.00  0.00    -0.270 OA
ATOM     51  N   UNK A   1       5.809  -5.197  -1.579  1.00  0.00    -0.236 N 
ATOM     52  C   UNK A   1       6.708  -4.073  -2.067  1.00  0.00    +0.131 C 
ATOM     53  C   UNK A   1       5.985  -2.731  -1.831  1.00  0.00    -0.033 C 
ATOM     54  C   UNK A   1       8.152  -4.052  -1.373  1.00  0.00    +0.266 C 
ATOM     55  O   UNK A   1       8.616  -5.018  -0.755  1.00  0.00    -0.270 OA
ATOM     56  N   UNK A   1       8.888  -2.941  -1.663  1.00  0.00    -0.236 N 
ATOM     57  C   UNK A   1       8.863  -1.916  -0.555  1.00  0.00    +0.134 C 
ATOM     58  C   UNK A   1       9.938  -2.236   0.514  1.00  0.00    -0.020 C 
ATOM     59  C   UNK A   1       9.379  -2.811   1.826  1.00  0.00    -0.033 C 
ATOM     60  C   UNK A   1       8.189  -2.077   2.445  1.00  0.00    +0.018 C 
ATOM     61  N   UNK A   1       8.345  -0.640   2.480  1.00  0.00    -0.357 N 
ATOM     62  C   UNK A   1       9.259   0.114   3.122  1.00  0.00    +0.185 C 
ATOM     63  N   UNK A   1       9.882  -0.235   4.202  1.00  0.00    -0.270 N 
ATOM     64  N   UNK A   1       9.398   1.325   2.529  1.00  0.00    -0.370 N 
ATOM     65  C   UNK A   1       9.091  -0.411  -0.994  1.00  0.00    +0.266 C 
ATOM     66  O   UNK A   1       9.998  -0.069  -1.761  1.00  0.00    -0.270 OA
ATOM     67  N   UNK A   1       8.292   0.407  -0.266  1.00  0.00    -0.236 N 
ATOM     68  C   UNK A   1       8.006   1.801  -0.768  1.00  0.00    +0.140 C 
ATOM     69  C   UNK A   1       7.578   1.886  -2.269  1.00  0.00    +0.023 C 
ATOM     70  C   UNK A   1       6.288   1.252  -2.699  1.00  0.00    +0.061 C 
ATOM     71  C   UNK A   1       5.392   0.531  -1.944  1.00  0.00    +0.024 C 
ATOM     72  N   UNK A   1       4.394   0.156  -2.789  1.00  0.00    -0.351 N 
ATOM     73  C   UNK A   1       4.709   0.644  -4.025  1.00  0.00    +0.092 C 
ATOM     74  N   UNK A   1       5.838   1.325  -4.023  1.00  0.00    -0.242 N 
ATOM     75  C   UNK A   1       7.014   2.546   0.256  1.00  0.00    +0.267 C 
ATOM     76  O   UNK A   1       6.953   2.220   1.447  1.00  0.00    -0.270 OA
ATOM     77  N   UNK A   1       6.410   3.615  -0.296  1.00  0.00    -0.235 N 
ATOM     78  C   UNK A   1       5.032   4.029   0.177  1.00  0.00    +0.143 C 
ATOM     79  C   UNK A   1       4.026   2.853   0.499  1.00  0.00    +0.027 C 
ATOM     80  S   UNK A   1       2.329   3.023  -0.353  1.00  0.00    -0.140 S 
ATOM     81  C   UNK A   1       5.126   5.111   1.310  1.00  0.00    +0.267 C 
ATOM     82  O   UNK A   1       4.847   4.909   2.494  1.00  0.00    -0.270 OA
ATOM     83  N   UNK A   1       5.429   6.350   0.859  1.00  0.00    -0.238 N 
ATOM     84  C   UNK A   1       6.443   7.031   1.676  1.00  0.00    +0.140 C 
ATOM     85  C   UNK A   1       5.868   7.883   2.785  1.00  0.00    +0.325 C 
ATOM     86  O   UNK A   1       6.317   8.982   3.120  1.00  0.00    -0.250 OA
ATOM     87  O   UNK A   1       4.843   7.309   3.454  1.00  0.00    -0.480 OA
ATOM     88  C   UNK A   1      -1.050   3.196   2.890  1.00  0.00    -0.059 C 
ATOM     89  C   UNK A   1      -2.290   3.147   2.253  1.00  0.00    -0.058 C 
ATOM     90  C   UNK A   1      -2.413   2.570   0.988  1.00  0.00    -0.038 C 
ATOM     91  C   UNK A   1      -3.800   2.416   0.356  1.00  0.00    +0.019 C 
ATOM     92  C   UNK A   1      -1.238   2.032   0.387  1.00  0.00    -0.053 C 
ATOM     93  C   UNK A   1       0.049   2.060   1.012  1.00  0.00    -0.022 C 
ATOM     94  C   UNK A   1       1.349   1.520   0.327  1.00  0.00    +0.076 C 
ATOM     95  C   UNK A   1       0.113   2.651   2.303  1.00  0.00    -0.046 C 
ATOM     96  C   UNK A   1       1.401   2.784   3.074  1.00  0.00    -0.039 C 
ATOM     97  H   UNK A   1      -9.787   5.525  -0.429  1.00  0.00    +0.060 HD
ATOM     98  H   UNK A   1      -8.181   7.819  -1.731  1.00  0.00    +0.025 HD
ATOM     99  H   UNK A   1      -7.753   6.115  -1.895  1.00  0.00    +0.025 HD
ATOM    100  H   UNK A   1      -9.264   6.690  -2.569  1.00  0.00    +0.025 HD
ATOM    101  H   UNK A   1      -7.722   4.408  -0.581  1.00  0.00    +0.067 HD
ATOM    102  H   UNK A   1      -6.385   3.257   1.928  1.00  0.00    +0.041 HD
ATOM    103  H   UNK A   1      -6.622   2.399   0.401  1.00  0.00    +0.041 HD
ATOM    104  H   UNK A   1      -8.728   0.956  -0.009  1.00  0.00    +0.062 HD
ATOM    105  H   UNK A   1     -10.109   1.136   1.063  1.00  0.00    +0.062 HD
ATOM    106  H   UNK A   1      -9.309  -1.290   0.047  1.00  0.00    +0.068 HD
ATOM    107  H   UNK A   1     -11.597  -2.691  -1.465  1.00  0.00    +0.059 HD
ATOM    108  H   UNK A   1     -11.861  -1.645  -0.061  1.00  0.00    +0.059 HD
ATOM    109  H   UNK A   1      -9.932  -3.565   0.203  1.00  0.00    +0.210 HD
ATOM    110  H   UNK A   1      -6.909  -1.711  -0.537  1.00  0.00    +0.066 HD
ATOM    111  H   UNK A   1      -7.935  -2.200   1.582  1.00  0.00    +0.036 HD
ATOM    112  H   UNK A   1      -6.187  -2.350   1.660  1.00  0.00    +0.036 HD
ATOM    113  H   UNK A   1      -7.572  -5.711   0.377  1.00  0.00    +0.084 HD
ATOM    114  H   UNK A   1      -7.249  -7.282   2.339  1.00  0.00    +0.167 HD
ATOM    115  H   UNK A   1      -6.976  -6.017   4.538  1.00  0.00    +0.104 HD
ATOM    116  H   UNK A   1      -4.862  -0.605  -1.636  1.00  0.00    +0.049 HD
ATOM    117  H   UNK A   1      -5.997  -1.661  -2.515  1.00  0.00    +0.049 HD
ATOM    118  H   UNK A   1      -4.493  -1.635  -4.285  1.00  0.00    +0.029 HD
ATOM    119  H   UNK A   1      -3.254  -0.886  -3.279  1.00  0.00    +0.029 HD
ATOM    120  H   UNK A   1      -2.323  -3.094  -3.570  1.00  0.00    +0.029 HD
ATOM    121  H   UNK A   1      -3.931  -3.844  -3.530  1.00  0.00    +0.029 HD
ATOM    122  H   UNK A   1      -3.190  -4.213  -1.247  1.00  0.00    +0.064 HD
ATOM    123  H   UNK A   1       0.608  -2.337  -2.065  1.00  0.00    +0.067 HD
ATOM    124  H   UNK A   1       1.679  -1.471   0.450  1.00  0.00    +0.041 HD
ATOM    125  H   UNK A   1      -0.042  -1.103   0.605  1.00  0.00    +0.041 HD
ATOM    126  H   UNK A   1       3.863  -4.614  -0.223  1.00  0.00    +0.068 HD
ATOM    127  H   UNK A   1       2.473  -6.502   0.211  1.00  0.00    +0.059 HD
ATOM    128  H   UNK A   1       3.734  -7.209  -0.800  1.00  0.00    +0.059 HD
ATOM    129  H   UNK A   1       1.583  -6.020  -1.995  1.00  0.00    +0.210 HD
ATOM    130  H   UNK A   1       6.898  -4.183  -3.149  1.00  0.00    +0.065 HD
ATOM    131  H   UNK A   1       5.800  -2.586  -0.760  1.00  0.00    +0.026 HD
ATOM    132  H   UNK A   1       5.023  -2.680  -2.350  1.00  0.00    +0.026 HD
ATOM    133  H   UNK A   1       6.585  -1.896  -2.214  1.00  0.00    +0.026 HD
ATOM    134  H   UNK A   1       7.870  -1.935  -0.095  1.00  0.00    +0.066 HD
ATOM    135  H   UNK A   1      10.504  -1.332   0.770  1.00  0.00    +0.029 HD
ATOM    136  H   UNK A   1      10.683  -2.941   0.121  1.00  0.00    +0.029 HD
ATOM    137  H   UNK A   1       9.088  -3.856   1.668  1.00  0.00    +0.029 HD
ATOM    138  H   UNK A   1      10.197  -2.834   2.557  1.00  0.00    +0.029 HD
ATOM    139  H   UNK A   1       8.024  -2.453   3.461  1.00  0.00    +0.049 HD
ATOM    140  H   UNK A   1       7.263  -2.315   1.905  1.00  0.00    +0.049 HD
ATOM    141  H   UNK A   1       8.043  -0.246   1.562  1.00  0.00    +0.163 HD
ATOM    142  H   UNK A   1       9.497  -1.164   4.386  1.00  0.00    +0.191 HD
ATOM    143  H   UNK A   1       8.464   1.781   2.498  1.00  0.00    +0.159 HD
ATOM    144  H   UNK A   1       9.392   1.166   1.507  1.00  0.00    +0.159 HD
ATOM    145  H   UNK A   1       8.939   2.382  -0.687  1.00  0.00    +0.066 HD
ATOM    146  H   UNK A   1       7.526   2.946  -2.553  1.00  0.00    +0.036 HD
ATOM    147  H   UNK A   1       8.375   1.469  -2.900  1.00  0.00    +0.036 HD
ATOM    148  H   UNK A   1       5.411   0.246  -0.901  1.00  0.00    +0.084 HD
ATOM    149  H   UNK A   1       3.589  -0.404  -2.525  1.00  0.00    +0.167 HD
ATOM    150  H   UNK A   1       4.067   0.474  -4.875  1.00  0.00    +0.104 HD
ATOM    151  H   UNK A   1       4.585   4.560  -0.679  1.00  0.00    +0.067 HD
ATOM    152  H   UNK A   1       4.416   1.892   0.168  1.00  0.00    +0.041 HD
ATOM    153  H   UNK A   1       3.846   2.785   1.573  1.00  0.00    +0.041 HD
ATOM    154  H   UNK A   1       7.014   7.714   1.034  1.00  0.00    +0.064 HD
ATOM    155  H   UNK A   1       7.183   6.353   2.122  1.00  0.00    +0.064 HD
ATOM    156  H   UNK A   1       4.720   6.414   3.009  1.00  0.00    +0.296 HD
ATOM    157  H   UNK A   1      -0.992   3.660   3.869  1.00  0.00    +0.063 HD
ATOM    158  H   UNK A   1      -3.168   3.549   2.752  1.00  0.00    +0.063 HD
ATOM    159  H   UNK A   1      -3.700   2.035  -0.666  1.00  0.00    +0.043 HD
ATOM    160  H   UNK A   1      -4.358   1.672   0.936  1.00  0.00    +0.043 HD
ATOM    161  H   UNK A   1      -1.343   1.550  -0.586  1.00  0.00    +0.063 HD
ATOM    162  H   UNK A   1       1.980   1.008   1.058  1.00  0.00    +0.058 HD
ATOM    163  H   UNK A   1       1.992   1.866   3.039  1.00  0.00    +0.028 HD
ATOM    164  H   UNK A   1       1.981   3.627   2.690  1.00  0.00    +0.028 HD
ATOM    165  H   UNK A   1       1.208   2.974   4.138  1.00  0.00    +0.028 HD
ENDROOT
TORSDOF 0