REMARK  Generated by RDKit with Gasteiger charges
REMARK  --------------------------------------------------
ROOT
ATOM      1  N   UNK A   1     -12.028   5.943  -2.369  1.00  0.00    -0.131 N 
ATOM      2  C   UNK A   1     -10.801   5.242  -1.924  1.00  0.00    +0.121 C 
ATOM      3  C   UNK A   1      -9.950   4.985  -3.166  1.00  0.00    -0.037 C 
ATOM      4  C   UNK A   1     -10.054   6.168  -0.949  1.00  0.00    +0.262 C 
ATOM      5  O   UNK A   1      -9.999   7.387  -1.178  1.00  0.00    -0.271 OA
ATOM      6  N   UNK A   1      -9.527   5.618   0.155  1.00  0.00    -0.236 N 
ATOM      7  C   UNK A   1      -9.093   4.164   0.181  1.00  0.00    +0.143 C 
ATOM      8  C   UNK A   1      -7.636   4.128   0.784  1.00  0.00    +0.025 C 
ATOM      9  S   UNK A   1      -6.758   2.507   0.987  1.00  0.00    -0.154 S 
ATOM     10  C   UNK A   1     -10.116   3.376   1.082  1.00  0.00    +0.267 C 
ATOM     11  O   UNK A   1     -10.305   3.682   2.265  1.00  0.00    -0.270 OA
ATOM     12  N   UNK A   1     -10.786   2.419   0.392  1.00  0.00    -0.234 N 
ATOM     13  C   UNK A   1     -11.030   1.150   1.182  1.00  0.00    +0.157 C 
ATOM     14  C   UNK A   1     -12.192   1.314   2.192  1.00  0.00    +0.075 C 
ATOM     15  O   UNK A   1     -13.206   2.212   1.693  1.00  0.00    -0.394 OA
ATOM     16  C   UNK A   1     -11.375  -0.083   0.263  1.00  0.00    +0.269 C 
ATOM     17  O   UNK A   1     -12.345  -0.074  -0.500  1.00  0.00    -0.270 OA
ATOM     18  N   UNK A   1     -10.558  -1.123   0.521  1.00  0.00    -0.236 N 
ATOM     19  C   UNK A   1     -10.277  -2.126  -0.573  1.00  0.00    +0.135 C 
ATOM     20  C   UNK A   1      -9.596  -1.438  -1.794  1.00  0.00    -0.013 C 
ATOM     21  C   UNK A   1     -10.610  -1.030  -2.878  1.00  0.00    +0.029 C 
ATOM     22  C   UNK A   1     -10.636   0.422  -3.322  1.00  0.00    +0.217 C 
ATOM     23  O   UNK A   1     -11.092   0.758  -4.424  1.00  0.00    -0.275 OA
ATOM     24  N   UNK A   1     -10.178   1.362  -2.459  1.00  0.00    -0.370 N 
ATOM     25  C   UNK A   1      -9.458  -3.372   0.043  1.00  0.00    +0.266 C 
ATOM     26  O   UNK A   1      -9.812  -3.868   1.124  1.00  0.00    -0.270 OA
ATOM     27  N   UNK A   1      -8.561  -3.945  -0.803  1.00  0.00    -0.236 N 
ATOM     28  C   UNK A   1      -7.160  -4.156  -0.221  1.00  0.00    +0.138 C 
ATOM     29  C   UNK A   1      -7.147  -5.354   0.776  1.00  0.00    +0.004 C 
ATOM     30  C   UNK A   1      -6.459  -5.074   2.103  1.00  0.00    -0.045 C 
ATOM     31  C   UNK A   1      -5.100  -5.361   2.273  1.00  0.00    -0.059 C 
ATOM     32  C   UNK A   1      -4.457  -5.056   3.475  1.00  0.00    -0.062 C 
ATOM     33  C   UNK A   1      -5.168  -4.466   4.522  1.00  0.00    -0.062 C 
ATOM     34  C   UNK A   1      -6.519  -4.164   4.355  1.00  0.00    -0.062 C 
ATOM     35  C   UNK A   1      -7.160  -4.463   3.151  1.00  0.00    -0.059 C 
ATOM     36  C   UNK A   1      -6.097  -4.532  -1.357  1.00  0.00    +0.267 C 
ATOM     37  O   UNK A   1      -6.280  -5.518  -2.088  1.00  0.00    -0.270 OA
ATOM     38  N   UNK A   1      -5.036  -3.690  -1.427  1.00  0.00    -0.234 N 
ATOM     39  C   UNK A   1      -3.635  -4.214  -1.123  1.00  0.00    +0.157 C 
ATOM     40  C   UNK A   1      -3.366  -5.651  -1.624  1.00  0.00    +0.075 C 
ATOM     41  O   UNK A   1      -2.165  -6.207  -1.044  1.00  0.00    -0.394 OA
ATOM     42  C   UNK A   1      -2.468  -3.295  -1.745  1.00  0.00    +0.269 C 
ATOM     43  O   UNK A   1      -2.630  -2.662  -2.793  1.00  0.00    -0.270 OA
ATOM     44  N   UNK A   1      -1.300  -3.403  -1.040  1.00  0.00    -0.235 N 
ATOM     45  C   UNK A   1      -0.052  -2.758  -1.670  1.00  0.00    +0.143 C 
ATOM     46  C   UNK A   1      -0.031  -1.183  -1.576  1.00  0.00    +0.027 C 
ATOM     47  S   UNK A   1       0.318  -0.222   0.009  1.00  0.00    -0.140 S 
ATOM     48  C   UNK A   1       1.316  -3.416  -1.177  1.00  0.00    +0.267 C 
ATOM     49  O   UNK A   1       1.460  -3.810  -0.015  1.00  0.00    -0.270 OA
ATOM     50  N   UNK A   1       2.253  -3.522  -2.167  1.00  0.00    -0.234 N 
ATOM     51  C   UNK A   1       3.684  -3.877  -1.735  1.00  0.00    +0.157 C 
ATOM     52  C   UNK A   1       3.761  -5.359  -1.277  1.00  0.00    +0.075 C 
ATOM     53  O   UNK A   1       3.361  -5.554   0.092  1.00  0.00    -0.394 OA
ATOM     54  C   UNK A   1       4.779  -3.738  -2.896  1.00  0.00    +0.269 C 
ATOM     55  O   UNK A   1       4.457  -3.851  -4.087  1.00  0.00    -0.270 OA
ATOM     56  N   UNK A   1       6.092  -3.772  -2.523  1.00  0.00    -0.236 N 
ATOM     57  C   UNK A   1       6.612  -2.718  -1.581  1.00  0.00    +0.134 C 
ATOM     58  C   UNK A   1       6.616  -3.331  -0.154  1.00  0.00    -0.020 C 
ATOM     59  C   UNK A   1       7.187  -2.421   0.942  1.00  0.00    -0.033 C 
ATOM     60  C   UNK A   1       7.491  -3.191   2.226  1.00  0.00    +0.018 C 
ATOM     61  N   UNK A   1       8.623  -4.135   2.060  1.00  0.00    -0.357 N 
ATOM     62  C   UNK A   1       9.887  -3.656   2.018  1.00  0.00    +0.185 C 
ATOM     63  N   UNK A   1      10.514  -3.287   3.086  1.00  0.00    -0.270 N 
ATOM     64  N   UNK A   1      10.448  -3.692   0.793  1.00  0.00    -0.370 N 
ATOM     65  C   UNK A   1       8.135  -2.354  -1.890  1.00  0.00    +0.266 C 
ATOM     66  O   UNK A   1       9.047  -3.144  -1.601  1.00  0.00    -0.270 OA
ATOM     67  N   UNK A   1       8.324  -1.120  -2.420  1.00  0.00    -0.236 N 
ATOM     68  C   UNK A   1       9.021  -0.119  -1.517  1.00  0.00    +0.138 C 
ATOM     69  C   UNK A   1      10.543  -0.451  -1.423  1.00  0.00    +0.006 C 
ATOM     70  C   UNK A   1      11.275   0.203  -0.273  1.00  0.00    -0.020 C 
ATOM     71  C   UNK A   1      11.101  -0.099   1.061  1.00  0.00    +0.005 C 
ATOM     72  N   UNK A   1      11.820   0.789   1.801  1.00  0.00    -0.361 N 
ATOM     73  C   UNK A   1      12.594   1.583   0.983  1.00  0.00    +0.046 C 
ATOM     74  C   UNK A   1      13.501   2.605   1.299  1.00  0.00    -0.038 C 
ATOM     75  C   UNK A   1      14.048   3.334   0.237  1.00  0.00    -0.060 C 
ATOM     76  C   UNK A   1      13.691   3.059  -1.082  1.00  0.00    -0.062 C 
ATOM     77  C   UNK A   1      12.785   2.031  -1.375  1.00  0.00    -0.053 C 
ATOM     78  C   UNK A   1      12.234   1.266  -0.328  1.00  0.00    +0.003 C 
ATOM     79  C   UNK A   1       8.931   1.351  -2.101  1.00  0.00    +0.267 C 
ATOM     80  O   UNK A   1       9.530   1.605  -3.161  1.00  0.00    -0.270 OA
ATOM     81  N   UNK A   1       8.401   2.358  -1.359  1.00  0.00    -0.233 N 
ATOM     82  C   UNK A   1       7.347   2.133  -0.292  1.00  0.00    +0.160 C 
ATOM     83  C   UNK A   1       8.074   2.073   1.096  1.00  0.00    +0.083 C 
ATOM     84  C   UNK A   1       7.249   2.295   2.353  1.00  0.00    -0.036 C 
ATOM     85  O   UNK A   1       9.182   3.011   1.119  1.00  0.00    -0.391 OA
ATOM     86  C   UNK A   1       6.233   3.291  -0.295  1.00  0.00    +0.269 C 
ATOM     87  O   UNK A   1       6.459   4.439  -0.690  1.00  0.00    -0.270 OA
ATOM     88  N   UNK A   1       5.090   2.854   0.283  1.00  0.00    -0.235 N 
ATOM     89  C   UNK A   1       3.779   3.488  -0.117  1.00  0.00    +0.143 C 
ATOM     90  C   UNK A   1       2.624   2.381  -0.006  1.00  0.00    +0.027 C 
ATOM     91  S   UNK A   1       1.009   2.821  -0.861  1.00  0.00    -0.140 S 
ATOM     92  C   UNK A   1       3.505   4.701   0.845  1.00  0.00    +0.267 C 
ATOM     93  O   UNK A   1       3.245   4.569   2.044  1.00  0.00    -0.270 OA
ATOM     94  N   UNK A   1       3.598   5.880   0.195  1.00  0.00    -0.238 N 
ATOM     95  C   UNK A   1       3.578   7.069   1.044  1.00  0.00    +0.140 C 
ATOM     96  C   UNK A   1       4.958   7.670   1.194  1.00  0.00    +0.325 C 
ATOM     97  O   UNK A   1       5.156   8.779   1.702  1.00  0.00    -0.250 OA
ATOM     98  O   UNK A   1       5.972   6.924   0.714  1.00  0.00    -0.480 OA
ATOM     99  C   UNK A   1      -2.388   3.101   2.376  1.00  0.00    -0.059 C 
ATOM    100  C   UNK A   1      -3.664   3.134   1.805  1.00  0.00    -0.058 C 
ATOM    101  C   UNK A   1      -3.897   2.578   0.548  1.00  0.00    -0.038 C 
ATOM    102  C   UNK A   1      -5.279   2.649  -0.120  1.00  0.00    +0.019 C 
ATOM    103  C   UNK A   1      -2.771   2.025  -0.133  1.00  0.00    -0.053 C 
ATOM    104  C   UNK A   1      -1.440   2.012   0.407  1.00  0.00    -0.022 C 
ATOM    105  C   UNK A   1      -0.258   1.458  -0.465  1.00  0.00    +0.076 C 
ATOM    106  C   UNK A   1      -1.279   2.534   1.711  1.00  0.00    -0.046 C 
ATOM    107  C   UNK A   1       0.044   2.570   2.427  1.00  0.00    -0.039 C 
ATOM    108  H   UNK A   1     -11.123   4.311  -1.461  1.00  0.00    +0.060 HD
ATOM    109  H   UNK A   1     -10.483   4.346  -3.879  1.00  0.00    +0.025 HD
ATOM    110  H   UNK A   1      -9.007   4.488  -2.907  1.00  0.00    +0.025 HD
ATOM    111  H   UNK A   1      -9.690   5.920  -3.674  1.00  0.00    +0.025 HD
ATOM    112  H   UNK A   1      -9.029   3.699  -0.808  1.00  0.00    +0.067 HD
ATOM    113  H   UNK A   1      -6.991   4.790   0.194  1.00  0.00    +0.041 HD
ATOM    114  H   UNK A   1      -7.665   4.560   1.792  1.00  0.00    +0.041 HD
ATOM    115  H   UNK A   1     -10.128   0.880   1.755  1.00  0.00    +0.068 HD
ATOM    116  H   UNK A   1     -11.824   1.748   3.127  1.00  0.00    +0.059 HD
ATOM    117  H   UNK A   1     -12.672   0.360   2.437  1.00  0.00    +0.059 HD
ATOM    118  H   UNK A   1     -12.651   2.677   1.015  1.00  0.00    +0.210 HD
ATOM    119  H   UNK A   1     -11.214  -2.599  -0.903  1.00  0.00    +0.066 HD
ATOM    120  H   UNK A   1      -8.967  -0.604  -1.461  1.00  0.00    +0.030 HD
ATOM    121  H   UNK A   1      -8.898  -2.117  -2.291  1.00  0.00    +0.030 HD
ATOM    122  H   UNK A   1     -10.386  -1.613  -3.780  1.00  0.00    +0.037 HD
ATOM    123  H   UNK A   1     -11.635  -1.292  -2.595  1.00  0.00    +0.037 HD
ATOM    124  H   UNK A   1     -10.387   2.329  -2.622  1.00  0.00    +0.159 HD
ATOM    125  H   UNK A   1     -10.175   1.149  -1.451  1.00  0.00    +0.159 HD
ATOM    126  H   UNK A   1      -6.821  -3.236   0.277  1.00  0.00    +0.066 HD
ATOM    127  H   UNK A   1      -6.658  -6.232   0.332  1.00  0.00    +0.034 HD
ATOM    128  H   UNK A   1      -8.162  -5.710   0.998  1.00  0.00    +0.034 HD
ATOM    129  H   UNK A   1      -4.529  -5.744   1.426  1.00  0.00    +0.063 HD
ATOM    130  H   UNK A   1      -3.385  -5.208   3.543  1.00  0.00    +0.062 HD
ATOM    131  H   UNK A   1      -4.642  -4.158   5.419  1.00  0.00    +0.062 HD
ATOM    132  H   UNK A   1      -7.061  -3.620   5.119  1.00  0.00    +0.062 HD
ATOM    133  H   UNK A   1      -8.189  -4.151   2.974  1.00  0.00    +0.063 HD
ATOM    134  H   UNK A   1      -3.492  -4.186  -0.034  1.00  0.00    +0.068 HD
ATOM    135  H   UNK A   1      -4.160  -6.344  -1.339  1.00  0.00    +0.059 HD
ATOM    136  H   UNK A   1      -3.258  -5.680  -2.715  1.00  0.00    +0.059 HD
ATOM    137  H   UNK A   1      -1.578  -5.405  -0.984  1.00  0.00    +0.210 HD
ATOM    138  H   UNK A   1      -0.093  -2.987  -2.748  1.00  0.00    +0.067 HD
ATOM    139  H   UNK A   1      -0.998  -0.817  -1.933  1.00  0.00    +0.041 HD
ATOM    140  H   UNK A   1       0.727  -0.823  -2.281  1.00  0.00    +0.041 HD
ATOM    141  H   UNK A   1       3.958  -3.190  -0.929  1.00  0.00    +0.068 HD
ATOM    142  H   UNK A   1       3.122  -5.998  -1.899  1.00  0.00    +0.059 HD
ATOM    143  H   UNK A   1       4.777  -5.759  -1.347  1.00  0.00    +0.059 HD
ATOM    144  H   UNK A   1       2.634  -4.877   0.165  1.00  0.00    +0.210 HD
ATOM    145  H   UNK A   1       6.014  -1.798  -1.591  1.00  0.00    +0.066 HD
ATOM    146  H   UNK A   1       7.167  -4.278  -0.202  1.00  0.00    +0.029 HD
ATOM    147  H   UNK A   1       5.610  -3.621   0.164  1.00  0.00    +0.029 HD
ATOM    148  H   UNK A   1       6.456  -1.633   1.155  1.00  0.00    +0.029 HD
ATOM    149  H   UNK A   1       8.101  -1.922   0.621  1.00  0.00    +0.029 HD
ATOM    150  H   UNK A   1       7.718  -2.482   3.027  1.00  0.00    +0.049 HD
ATOM    151  H   UNK A   1       6.611  -3.761   2.541  1.00  0.00    +0.049 HD
ATOM    152  H   UNK A   1       8.438  -4.631   1.186  1.00  0.00    +0.163 HD
ATOM    153  H   UNK A   1       9.795  -3.396   3.807  1.00  0.00    +0.191 HD
ATOM    154  H   UNK A   1      11.138  -2.955   0.693  1.00  0.00    +0.159 HD
ATOM    155  H   UNK A   1       9.777  -3.510   0.014  1.00  0.00    +0.159 HD
ATOM    156  H   UNK A   1       8.583  -0.145  -0.521  1.00  0.00    +0.066 HD
ATOM    157  H   UNK A   1      11.051  -0.201  -2.362  1.00  0.00    +0.034 HD
ATOM    158  H   UNK A   1      10.707  -1.525  -1.298  1.00  0.00    +0.034 HD
ATOM    159  H   UNK A   1      10.405  -0.784   1.526  1.00  0.00    +0.082 HD
ATOM    160  H   UNK A   1      11.708   0.904   2.793  1.00  0.00    +0.166 HD
ATOM    161  H   UNK A   1      13.709   2.860   2.329  1.00  0.00    +0.064 HD
ATOM    162  H   UNK A   1      14.709   4.167   0.450  1.00  0.00    +0.062 HD
ATOM    163  H   UNK A   1      14.059   3.673  -1.898  1.00  0.00    +0.062 HD
ATOM    164  H   UNK A   1      12.429   1.858  -2.389  1.00  0.00    +0.063 HD
ATOM    165  H   UNK A   1       6.800   1.195  -0.461  1.00  0.00    +0.069 HD
ATOM    166  H   UNK A   1       8.536   1.088   1.196  1.00  0.00    +0.063 HD
ATOM    167  H   UNK A   1       6.408   1.598   2.410  1.00  0.00    +0.026 HD
ATOM    168  H   UNK A   1       6.885   3.326   2.423  1.00  0.00    +0.026 HD
ATOM    169  H   UNK A   1       7.875   2.141   3.236  1.00  0.00    +0.026 HD
ATOM    170  H   UNK A   1       9.260   3.137   0.138  1.00  0.00    +0.211 HD
ATOM    171  H   UNK A   1       3.805   3.828  -1.163  1.00  0.00    +0.067 HD
ATOM    172  H   UNK A   1       2.978   1.459  -0.480  1.00  0.00    +0.041 HD
ATOM    173  H   UNK A   1       2.422   2.172   1.046  1.00  0.00    +0.041 HD
ATOM    174  H   UNK A   1       3.174   6.921   2.052  1.00  0.00    +0.064 HD
ATOM    175  H   UNK A   1       2.961   7.840   0.565  1.00  0.00    +0.064 HD
ATOM    176  H   UNK A   1       5.593   6.051   0.359  1.00  0.00    +0.296 HD
ATOM    177  H   UNK A   1      -2.249   3.530   3.365  1.00  0.00    +0.063 HD
ATOM    178  H   UNK A   1      -4.477   3.588   2.361  1.00  0.00    +0.063 HD
ATOM    179  H   UNK A   1      -5.333   3.578  -0.698  1.00  0.00    +0.043 HD
ATOM    180  H   UNK A   1      -5.362   1.819  -0.830  1.00  0.00    +0.043 HD
ATOM    181  H   UNK A   1      -2.927   1.580  -1.118  1.00  0.00    +0.063 HD
ATOM    182  H   UNK A   1      -0.694   1.327  -1.460  1.00  0.00    +0.058 HD
ATOM    183  H   UNK A   1      -0.101   2.669   3.509  1.00  0.00    +0.028 HD
ATOM    184  H   UNK A   1       0.633   3.429   2.096  1.00  0.00    +0.028 HD
ATOM    185  H   UNK A   1       0.603   1.642   2.291  1.00  0.00    +0.028 HD
ENDROOT
TORSDOF 0