MODEL 1
REMARK VINA RESULT:       0.4      0.000      0.000
REMARK  Generated by RDKit with Gasteiger charges
REMARK  --------------------------------------------------
ROOT
ATOM      1  N   UNK A   1      -5.738   8.554  -6.717  1.00  0.00    -0.131 N 
ATOM      2  C   UNK A   1      -6.853   9.003  -5.850  1.00  0.00    +0.121 C 
ATOM      3  C   UNK A   1      -8.110   8.294  -6.346  1.00  0.00    -0.037 C 
ATOM      4  C   UNK A   1      -6.549   8.567  -4.395  1.00  0.00    +0.262 C 
ATOM      5  O   UNK A   1      -5.810   7.589  -4.186  1.00  0.00    -0.271 OA
ATOM      6  N   UNK A   1      -7.244   9.174  -3.410  1.00  0.00    -0.236 N 
ATOM      7  C   UNK A   1      -7.866  10.535  -3.667  1.00  0.00    +0.143 C 
ATOM      8  C   UNK A   1      -8.805  11.026  -2.503  1.00  0.00    +0.025 C 
ATOM      9  S   UNK A   1     -10.558  10.346  -2.541  1.00  0.00    -0.154 S 
ATOM     10  C   UNK A   1      -6.773  11.657  -3.836  1.00  0.00    +0.267 C 
ATOM     11  O   UNK A   1      -5.738  11.678  -3.157  1.00  0.00    -0.270 OA
ATOM     12  N   UNK A   1      -7.110  12.481  -4.848  1.00  0.00    -0.236 N 
ATOM     13  C   UNK A   1      -6.900  13.963  -4.582  1.00  0.00    +0.140 C 
ATOM     14  C   UNK A   1      -5.850  14.584  -5.562  1.00  0.00    +0.023 C 
ATOM     15  C   UNK A   1      -4.474  13.955  -5.548  1.00  0.00    +0.061 C 
ATOM     16  C   UNK A   1      -4.169  12.628  -5.780  1.00  0.00    +0.024 C 
ATOM     17  N   UNK A   1      -2.904  12.469  -5.319  1.00  0.00    -0.351 N 
ATOM     18  C   UNK A   1      -2.391  13.715  -5.090  1.00  0.00    +0.092 C 
ATOM     19  N   UNK A   1      -3.296  14.652  -5.263  1.00  0.00    -0.242 N 
ATOM     20  C   UNK A   1      -8.270  14.735  -4.832  1.00  0.00    +0.267 C 
ATOM     21  O   UNK A   1      -9.091  14.303  -5.649  1.00  0.00    -0.270 OA
ATOM     22  N   UNK A   1      -8.318  15.927  -4.178  1.00  0.00    -0.236 N 
ATOM     23  C   UNK A   1      -9.725  16.354  -3.683  1.00  0.00    +0.135 C 
ATOM     24  C   UNK A   1      -9.736  16.110  -2.085  1.00  0.00    -0.012 C 
ATOM     25  C   UNK A   1     -11.087  16.103  -1.278  1.00  0.00    +0.031 C 
ATOM     26  C   UNK A   1     -11.086  15.216   0.045  1.00  0.00    +0.242 C 
ATOM     27  O   UNK A   1     -10.523  14.121   0.028  1.00  0.00    -0.273 OA
ATOM     28  C   UNK A   1      -9.961  17.909  -4.065  1.00  0.00    +0.266 C 
ATOM     29  O   UNK A   1      -9.480  18.795  -3.345  1.00  0.00    -0.270 OA
ATOM     30  N   UNK A   1     -11.789  15.756   1.076  1.00  0.00    -0.238 N 
ATOM     31  C   UNK A   1     -11.867  14.896   2.354  1.00  0.00    +0.138 C 
ATOM     32  C   UNK A   1     -10.688  15.258   3.305  1.00  0.00    +0.006 C 
ATOM     33  C   UNK A   1      -9.358  14.621   2.986  1.00  0.00    -0.020 C 
ATOM     34  C   UNK A   1      -8.456  15.065   2.036  1.00  0.00    +0.005 C 
ATOM     35  N   UNK A   1      -7.513  14.093   1.863  1.00  0.00    -0.361 N 
ATOM     36  C   UNK A   1      -7.622  13.141   2.850  1.00  0.00    +0.046 C 
ATOM     37  C   UNK A   1      -6.848  12.002   3.111  1.00  0.00    -0.038 C 
ATOM     38  C   UNK A   1      -7.285  11.142   4.129  1.00  0.00    -0.060 C 
ATOM     39  C   UNK A   1      -8.469  11.388   4.823  1.00  0.00    -0.062 C 
ATOM     40  C   UNK A   1      -9.244  12.518   4.528  1.00  0.00    -0.053 C 
ATOM     41  C   UNK A   1      -8.806  13.424   3.541  1.00  0.00    +0.003 C 
ATOM     42  C   UNK A   1     -13.176  15.157   3.243  1.00  0.00    +0.267 C 
ATOM     43  O   UNK A   1     -13.570  16.307   3.490  1.00  0.00    -0.270 OA
ATOM     44  N   UNK A   1     -10.648  18.125  -5.230  1.00  0.00    -0.236 N 
ATOM     45  C   UNK A   1     -11.725  19.211  -5.195  1.00  0.00    +0.138 C 
ATOM     46  C   UNK A   1     -11.181  20.644  -4.961  1.00  0.00    +0.004 C 
ATOM     47  C   UNK A   1     -10.287  21.270  -6.024  1.00  0.00    -0.045 C 
ATOM     48  C   UNK A   1     -10.832  22.082  -7.025  1.00  0.00    -0.059 C 
ATOM     49  C   UNK A   1     -10.012  22.666  -7.994  1.00  0.00    -0.062 C 
ATOM     50  C   UNK A   1      -8.637  22.433  -7.974  1.00  0.00    -0.062 C 
ATOM     51  C   UNK A   1      -8.090  21.596  -7.000  1.00  0.00    -0.062 C 
ATOM     52  C   UNK A   1      -8.913  21.017  -6.031  1.00  0.00    -0.059 C 
ATOM     53  C   UNK A   1     -12.705  19.269  -6.459  1.00  0.00    +0.267 C 
ATOM     54  O   UNK A   1     -12.326  19.074  -7.619  1.00  0.00    -0.270 OA
ATOM     55  N   UNK A   1     -13.644  14.037   3.870  1.00  0.00    -0.235 N 
ATOM     56  C   UNK A   1     -15.159  13.877   3.773  1.00  0.00    +0.143 C 
ATOM     57  C   UNK A   1     -15.504  13.450   2.270  1.00  0.00    +0.027 C 
ATOM     58  S   UNK A   1     -15.643  14.808   0.971  1.00  0.00    -0.140 S 
ATOM     59  C   UNK A   1     -15.882  12.812   4.805  1.00  0.00    +0.267 C 
ATOM     60  O   UNK A   1     -16.742  12.039   4.358  1.00  0.00    -0.270 OA
ATOM     61  N   UNK A   1     -13.949  19.735  -6.131  1.00  0.00    -0.236 N 
ATOM     62  C   UNK A   1     -15.047  18.749  -6.444  1.00  0.00    +0.131 C 
ATOM     63  C   UNK A   1     -14.838  17.438  -5.655  1.00  0.00    -0.033 C 
ATOM     64  C   UNK A   1     -16.529  19.334  -6.294  1.00  0.00    +0.266 C 
ATOM     65  O   UNK A   1     -17.006  20.088  -7.155  1.00  0.00    -0.270 OA
ATOM     66  N   UNK A   1     -15.546  12.893   6.125  1.00  0.00    -0.236 N 
ATOM     67  C   UNK A   1     -16.649  12.896   7.197  1.00  0.00    +0.134 C 
ATOM     68  C   UNK A   1     -18.006  13.446   6.662  1.00  0.00    -0.021 C 
ATOM     69  C   UNK A   1     -19.111  13.704   7.699  1.00  0.00    -0.050 C 
ATOM     70  C   UNK A   1     -18.713  14.661   8.825  1.00  0.00    -0.041 C 
ATOM     71  C   UNK A   1     -19.848  14.841   9.836  1.00  0.00    -0.008 C 
ATOM     72  N   UNK A   1     -19.335  15.228  11.168  1.00  0.00    -0.330 N 
ATOM     73  C   UNK A   1     -16.880  11.595   8.091  1.00  0.00    +0.266 C 
ATOM     74  O   UNK A   1     -17.024  10.466   7.614  1.00  0.00    -0.270 OA
ATOM     75  N   UNK A   1     -17.181  18.871  -5.200  1.00  0.00    -0.236 N 
ATOM     76  C   UNK A   1     -18.646  18.631  -5.314  1.00  0.00    +0.134 C 
ATOM     77  C   UNK A   1     -18.998  17.562  -6.372  1.00  0.00    -0.019 C 
ATOM     78  C   UNK A   1     -20.505  17.461  -6.689  1.00  0.00    -0.045 C 
ATOM     79  C   UNK A   1     -20.978  18.629  -7.565  1.00  0.00    -0.063 C 
ATOM     80  C   UNK A   1     -20.802  16.142  -7.406  1.00  0.00    -0.063 C 
ATOM     81  C   UNK A   1     -19.324  18.375  -3.902  1.00  0.00    +0.266 C 
ATOM     82  O   UNK A   1     -19.920  19.334  -3.380  1.00  0.00    -0.270 OA
ATOM     83  N   UNK A   1     -17.002  11.894   9.423  1.00  0.00    -0.235 N 
ATOM     84  C   UNK A   1     -17.512  10.807  10.308  1.00  0.00    +0.143 C 
ATOM     85  C   UNK A   1     -16.345   9.874  10.728  1.00  0.00    +0.058 C 
ATOM     86  C   UNK A   1     -16.668   8.800  11.774  1.00  0.00    +0.220 C 
ATOM     87  O   UNK A   1     -16.440   7.595  11.644  1.00  0.00    -0.275 OA
ATOM     88  N   UNK A   1     -17.138   9.274  12.982  1.00  0.00    -0.370 N 
ATOM     89  C   UNK A   1     -18.166  11.441  11.582  1.00  0.00    +0.267 C 
ATOM     90  O   UNK A   1     -17.523  12.079  12.421  1.00  0.00    -0.270 OA
ATOM     91  N   UNK A   1     -19.394  17.134  -3.365  1.00  0.00    -0.233 N 
ATOM     92  C   UNK A   1     -18.218  16.202  -3.399  1.00  0.00    +0.160 C 
ATOM     93  C   UNK A   1     -17.523  15.992  -2.006  1.00  0.00    +0.028 C 
ATOM     94  S   UNK A   1     -16.038  14.861  -2.132  1.00  0.00    -0.140 S 
ATOM     95  C   UNK A   1     -18.811  14.848  -3.778  1.00  0.00    +0.329 C 
ATOM     96  O   UNK A   1     -19.756  14.250  -3.255  1.00  0.00    -0.250 OA
ATOM     97  O   UNK A   1     -18.135  14.200  -4.762  1.00  0.00    -0.480 OA
ATOM     98  N   UNK A   1     -19.438  11.028  11.746  1.00  0.00    -0.238 N 
ATOM     99  C   UNK A   1     -20.082  11.536  12.980  1.00  0.00    +0.140 C 
ATOM    100  C   UNK A   1     -21.570  11.238  12.866  1.00  0.00    +0.325 C 
ATOM    101  O   UNK A   1     -22.404  11.419  13.749  1.00  0.00    -0.250 OA
ATOM    102  O   UNK A   1     -21.884  10.688  11.662  1.00  0.00    -0.480 OA
ATOM    103  C   UNK A   1     -14.933  10.174  -1.113  1.00  0.00    -0.059 C 
ATOM    104  C   UNK A   1     -13.560  10.291  -1.357  1.00  0.00    -0.058 C 
ATOM    105  C   UNK A   1     -12.938  11.542  -1.376  1.00  0.00    -0.038 C 
ATOM    106  C   UNK A   1     -11.427  11.730  -1.619  1.00  0.00    +0.019 C 
ATOM    107  C   UNK A   1     -13.750  12.671  -1.058  1.00  0.00    -0.053 C 
ATOM    108  C   UNK A   1     -15.150  12.587  -0.805  1.00  0.00    -0.022 C 
ATOM    109  C   UNK A   1     -16.006  13.859  -0.547  1.00  0.00    +0.076 C 
ATOM    110  C   UNK A   1     -15.740  11.300  -0.857  1.00  0.00    -0.046 C 
ATOM    111  C   UNK A   1     -17.215  11.099  -0.654  1.00  0.00    -0.039 C 
ATOM    112  H   UNK A   1      -6.929  10.079  -5.975  1.00  0.00    +0.060 HD
ATOM    113  H   UNK A   1      -8.383   8.604  -7.362  1.00  0.00    +0.025 HD
ATOM    114  H   UNK A   1      -8.971   8.469  -5.691  1.00  0.00    +0.025 HD
ATOM    115  H   UNK A   1      -7.951   7.208  -6.373  1.00  0.00    +0.025 HD
ATOM    116  H   UNK A   1      -8.502  10.525  -4.563  1.00  0.00    +0.067 HD
ATOM    117  H   UNK A   1      -8.377  10.773  -1.528  1.00  0.00    +0.041 HD
ATOM    118  H   UNK A   1      -8.906  12.114  -2.550  1.00  0.00    +0.041 HD
ATOM    119  H   UNK A   1      -6.585  14.150  -3.542  1.00  0.00    +0.066 HD
ATOM    120  H   UNK A   1      -6.233  14.527  -6.592  1.00  0.00    +0.036 HD
ATOM    121  H   UNK A   1      -5.738  15.654  -5.334  1.00  0.00    +0.036 HD
ATOM    122  H   UNK A   1      -4.825  11.793  -5.983  1.00  0.00    +0.084 HD
ATOM    123  H   UNK A   1      -2.483  11.578  -5.114  1.00  0.00    +0.167 HD
ATOM    124  H   UNK A   1      -1.382  13.868  -4.743  1.00  0.00    +0.104 HD
ATOM    125  H   UNK A   1     -10.540  15.758  -4.118  1.00  0.00    +0.066 HD
ATOM    126  H   UNK A   1      -9.205  15.170  -1.887  1.00  0.00    +0.030 HD
ATOM    127  H   UNK A   1      -9.117  16.897  -1.629  1.00  0.00    +0.030 HD
ATOM    128  H   UNK A   1     -11.328  17.141  -1.009  1.00  0.00    +0.037 HD
ATOM    129  H   UNK A   1     -11.893  15.715  -1.909  1.00  0.00    +0.037 HD
ATOM    130  H   UNK A   1     -11.869  13.827   2.102  1.00  0.00    +0.066 HD
ATOM    131  H   UNK A   1     -10.940  14.995   4.338  1.00  0.00    +0.034 HD
ATOM    132  H   UNK A   1     -10.558  16.348   3.314  1.00  0.00    +0.034 HD
ATOM    133  H   UNK A   1      -8.550  15.885   1.330  1.00  0.00    +0.082 HD
ATOM    134  H   UNK A   1      -6.893  14.055   1.063  1.00  0.00    +0.166 HD
ATOM    135  H   UNK A   1      -5.968  11.789   2.514  1.00  0.00    +0.064 HD
ATOM    136  H   UNK A   1      -6.719  10.238   4.337  1.00  0.00    +0.062 HD
ATOM    137  H   UNK A   1      -8.844  10.684   5.559  1.00  0.00    +0.062 HD
ATOM    138  H   UNK A   1     -10.206  12.697   5.010  1.00  0.00    +0.063 HD
ATOM    139  H   UNK A   1     -12.375  18.971  -4.335  1.00  0.00    +0.066 HD
ATOM    140  H   UNK A   1     -12.037  21.322  -4.813  1.00  0.00    +0.034 HD
ATOM    141  H   UNK A   1     -10.651  20.711  -4.000  1.00  0.00    +0.034 HD
ATOM    142  H   UNK A   1     -11.919  22.186  -7.060  1.00  0.00    +0.063 HD
ATOM    143  H   UNK A   1     -10.474  23.249  -8.782  1.00  0.00    +0.062 HD
ATOM    144  H   UNK A   1      -8.005  22.846  -8.746  1.00  0.00    +0.062 HD
ATOM    145  H   UNK A   1      -7.039  21.332  -7.002  1.00  0.00    +0.062 HD
ATOM    146  H   UNK A   1      -8.518  20.307  -5.298  1.00  0.00    +0.063 HD
ATOM    147  H   UNK A   1     -15.681  14.825   3.985  1.00  0.00    +0.067 HD
ATOM    148  H   UNK A   1     -14.715  12.774   1.931  1.00  0.00    +0.041 HD
ATOM    149  H   UNK A   1     -16.457  12.918   2.217  1.00  0.00    +0.041 HD
ATOM    150  H   UNK A   1     -15.003  18.457  -7.503  1.00  0.00    +0.065 HD
ATOM    151  H   UNK A   1     -15.641  16.724  -5.865  1.00  0.00    +0.026 HD
ATOM    152  H   UNK A   1     -14.805  17.617  -4.572  1.00  0.00    +0.026 HD
ATOM    153  H   UNK A   1     -13.900  16.941  -5.930  1.00  0.00    +0.026 HD
ATOM    154  H   UNK A   1     -16.282  13.656   7.906  1.00  0.00    +0.066 HD
ATOM    155  H   UNK A   1     -17.829  14.384   6.120  1.00  0.00    +0.029 HD
ATOM    156  H   UNK A   1     -18.428  12.744   5.936  1.00  0.00    +0.029 HD
ATOM    157  H   UNK A   1     -19.985  14.119   7.176  1.00  0.00    +0.027 HD
ATOM    158  H   UNK A   1     -19.444  12.745   8.113  1.00  0.00    +0.027 HD
ATOM    159  H   UNK A   1     -18.442  15.643   8.403  1.00  0.00    +0.028 HD
ATOM    160  H   UNK A   1     -17.824  14.296   9.341  1.00  0.00    +0.028 HD
ATOM    161  H   UNK A   1     -20.525  15.623   9.482  1.00  0.00    +0.043 HD
ATOM    162  H   UNK A   1     -20.438  13.924   9.945  1.00  0.00    +0.043 HD
ATOM    163  H   UNK A   1     -19.039  14.317  11.571  1.00  0.00    +0.118 HD
ATOM    164  H   UNK A   1     -18.406  15.633  10.993  1.00  0.00    +0.118 HD
ATOM    165  H   UNK A   1     -19.104  19.571  -5.648  1.00  0.00    +0.066 HD
ATOM    166  H   UNK A   1     -18.470  17.780  -7.313  1.00  0.00    +0.030 HD
ATOM    167  H   UNK A   1     -18.621  16.579  -6.065  1.00  0.00    +0.030 HD
ATOM    168  H   UNK A   1     -21.087  17.466  -5.763  1.00  0.00    +0.030 HD
ATOM    169  H   UNK A   1     -20.760  19.596  -7.106  1.00  0.00    +0.023 HD
ATOM    170  H   UNK A   1     -20.496  18.599  -8.550  1.00  0.00    +0.023 HD
ATOM    171  H   UNK A   1     -22.063  18.579  -7.716  1.00  0.00    +0.023 HD
ATOM    172  H   UNK A   1     -20.638  15.295  -6.729  1.00  0.00    +0.023 HD
ATOM    173  H   UNK A   1     -21.847  16.101  -7.725  1.00  0.00    +0.023 HD
ATOM    174  H   UNK A   1     -20.165  16.011  -8.286  1.00  0.00    +0.023 HD
ATOM    175  H   UNK A   1     -18.270  10.192   9.794  1.00  0.00    +0.066 HD
ATOM    176  H   UNK A   1     -15.523  10.474  11.143  1.00  0.00    +0.039 HD
ATOM    177  H   UNK A   1     -15.932   9.365   9.847  1.00  0.00    +0.039 HD
ATOM    178  H   UNK A   1     -18.133   9.494  12.852  1.00  0.00    +0.159 HD
ATOM    179  H   UNK A   1     -16.819  10.247  13.090  1.00  0.00    +0.159 HD
ATOM    180  H   UNK A   1     -17.466  16.473  -4.146  1.00  0.00    +0.068 HD
ATOM    181  H   UNK A   1     -18.227  15.570  -1.279  1.00  0.00    +0.041 HD
ATOM    182  H   UNK A   1     -17.163  16.954  -1.627  1.00  0.00    +0.041 HD
ATOM    183  H   UNK A   1     -18.334  13.277  -4.540  1.00  0.00    +0.296 HD
ATOM    184  H   UNK A   1     -19.968  12.617  13.108  1.00  0.00    +0.064 HD
ATOM    185  H   UNK A   1     -19.712  11.015  13.875  1.00  0.00    +0.064 HD
ATOM    186  H   UNK A   1     -20.982  10.706  11.211  1.00  0.00    +0.296 HD
ATOM    187  H   UNK A   1     -15.366   9.179  -1.115  1.00  0.00    +0.063 HD
ATOM    188  H   UNK A   1     -12.976   9.394  -1.536  1.00  0.00    +0.063 HD
ATOM    189  H   UNK A   1     -10.937  11.805  -0.640  1.00  0.00    +0.043 HD
ATOM    190  H   UNK A   1     -11.286  12.655  -2.196  1.00  0.00    +0.043 HD
ATOM    191  H   UNK A   1     -13.272  13.656  -1.006  1.00  0.00    +0.063 HD
ATOM    192  H   UNK A   1     -17.053  13.565  -0.424  1.00  0.00    +0.058 HD
ATOM    193  H   UNK A   1     -17.486  10.039  -0.697  1.00  0.00    +0.028 HD
ATOM    194  H   UNK A   1     -17.515  11.469   0.331  1.00  0.00    +0.028 HD
ATOM    195  H   UNK A   1     -17.781  11.613  -1.439  1.00  0.00    +0.028 HD
ENDROOT
TORSDOF 0
ENDMDL
