MODEL 1
REMARK VINA RESULT:      -6.9      0.000      0.000
REMARK  Generated by RDKit with Gasteiger charges
REMARK  --------------------------------------------------
ROOT
ATOM      1  N   UNK A   1     -13.219  11.822   0.832  1.00  0.00    -0.131 N 
ATOM      2  C   UNK A   1     -11.949  12.531   1.092  1.00  0.00    +0.121 C 
ATOM      3  C   UNK A   1     -12.112  13.310   2.396  1.00  0.00    -0.037 C 
ATOM      4  C   UNK A   1     -10.799  11.503   1.000  1.00  0.00    +0.262 C 
ATOM      5  O   UNK A   1     -10.737  10.702   0.057  1.00  0.00    -0.271 OA
ATOM      6  N   UNK A   1      -9.942  11.595   2.019  1.00  0.00    -0.236 N 
ATOM      7  C   UNK A   1      -8.546  12.040   1.623  1.00  0.00    +0.143 C 
ATOM      8  C   UNK A   1      -8.355  13.611   1.581  1.00  0.00    +0.025 C 
ATOM      9  S   UNK A   1      -9.138  14.479   0.130  1.00  0.00    -0.154 S 
ATOM     10  C   UNK A   1      -7.586  11.474   2.752  1.00  0.00    +0.267 C 
ATOM     11  O   UNK A   1      -7.507  12.069   3.835  1.00  0.00    -0.270 OA
ATOM     12  N   UNK A   1      -7.102  10.228   2.567  1.00  0.00    -0.235 N 
ATOM     13  C   UNK A   1      -5.955   9.928   1.653  1.00  0.00    +0.143 C 
ATOM     14  C   UNK A   1      -6.341   9.886   0.148  1.00  0.00    +0.058 C 
ATOM     15  C   UNK A   1      -7.365   8.791  -0.178  1.00  0.00    +0.220 C 
ATOM     16  O   UNK A   1      -7.209   7.931  -1.054  1.00  0.00    -0.275 OA
ATOM     17  N   UNK A   1      -8.516   8.805   0.583  1.00  0.00    -0.370 N 
ATOM     18  C   UNK A   1      -4.439  10.275   1.799  1.00  0.00    +0.267 C 
ATOM     19  O   UNK A   1      -3.631   9.364   1.545  1.00  0.00    -0.270 OA
ATOM     20  N   UNK A   1      -4.118  11.543   2.114  1.00  0.00    -0.236 N 
ATOM     21  C   UNK A   1      -3.044  12.192   1.220  1.00  0.00    +0.136 C 
ATOM     22  C   UNK A   1      -3.742  12.622  -0.116  1.00  0.00    -0.015 C 
ATOM     23  C   UNK A   1      -4.660  13.832   0.061  1.00  0.00    -0.060 C 
ATOM     24  C   UNK A   1      -2.789  12.828  -1.297  1.00  0.00    -0.060 C 
ATOM     25  C   UNK A   1      -2.245  13.372   1.972  1.00  0.00    +0.267 C 
ATOM     26  O   UNK A   1      -2.197  13.441   3.205  1.00  0.00    -0.270 OA
ATOM     27  N   UNK A   1      -1.482  14.129   1.133  1.00  0.00    -0.236 N 
ATOM     28  C   UNK A   1      -1.406  15.608   1.479  1.00  0.00    +0.131 C 
ATOM     29  C   UNK A   1      -0.280  15.832   2.501  1.00  0.00    -0.033 C 
ATOM     30  C   UNK A   1      -1.100  16.569   0.241  1.00  0.00    +0.266 C 
ATOM     31  O   UNK A   1      -0.373  16.209  -0.693  1.00  0.00    -0.270 OA
ATOM     32  N   UNK A   1      -1.613  17.826   0.415  1.00  0.00    -0.236 N 
ATOM     33  C   UNK A   1      -2.103  18.530  -0.853  1.00  0.00    +0.138 C 
ATOM     34  C   UNK A   1      -3.406  17.859  -1.364  1.00  0.00    +0.006 C 
ATOM     35  C   UNK A   1      -3.696  17.980  -2.847  1.00  0.00    -0.020 C 
ATOM     36  C   UNK A   1      -3.538  19.094  -3.649  1.00  0.00    +0.005 C 
ATOM     37  N   UNK A   1      -4.109  18.846  -4.862  1.00  0.00    -0.361 N 
ATOM     38  C   UNK A   1      -4.540  17.544  -4.935  1.00  0.00    +0.046 C 
ATOM     39  C   UNK A   1      -5.168  16.840  -5.976  1.00  0.00    -0.038 C 
ATOM     40  C   UNK A   1      -5.541  15.512  -5.722  1.00  0.00    -0.060 C 
ATOM     41  C   UNK A   1      -5.309  14.920  -4.482  1.00  0.00    -0.062 C 
ATOM     42  C   UNK A   1      -4.685  15.647  -3.464  1.00  0.00    -0.053 C 
ATOM     43  C   UNK A   1      -4.287  16.978  -3.686  1.00  0.00    +0.003 C 
ATOM     44  C   UNK A   1      -2.222  20.145  -0.762  1.00  0.00    +0.267 C 
ATOM     45  O   UNK A   1      -1.245  20.824  -1.112  1.00  0.00    -0.270 OA
ATOM     46  N   UNK A   1      -3.415  20.637  -0.329  1.00  0.00    -0.235 N 
ATOM     47  C   UNK A   1      -3.979  21.908  -1.002  1.00  0.00    +0.143 C 
ATOM     48  C   UNK A   1      -5.571  21.795  -1.079  1.00  0.00    +0.027 C 
ATOM     49  S   UNK A   1      -6.304  20.874  -2.548  1.00  0.00    -0.140 S 
ATOM     50  C   UNK A   1      -3.682  23.288  -0.226  1.00  0.00    +0.267 C 
ATOM     51  O   UNK A   1      -3.455  23.339   0.988  1.00  0.00    -0.270 OA
ATOM     52  N   UNK A   1      -3.750  24.376  -1.058  1.00  0.00    -0.233 N 
ATOM     53  C   UNK A   1      -3.964  25.733  -0.372  1.00  0.00    +0.160 C 
ATOM     54  C   UNK A   1      -2.635  26.197   0.307  1.00  0.00    +0.083 C 
ATOM     55  C   UNK A   1      -2.618  27.646   0.771  1.00  0.00    -0.036 C 
ATOM     56  O   UNK A   1      -1.506  25.976  -0.569  1.00  0.00    -0.391 OA
ATOM     57  C   UNK A   1      -4.461  26.863  -1.382  1.00  0.00    +0.269 C 
ATOM     58  O   UNK A   1      -3.834  27.142  -2.412  1.00  0.00    -0.270 OA
ATOM     59  N   UNK A   1      -5.553  27.535  -0.912  1.00  0.00    -0.236 N 
ATOM     60  C   UNK A   1      -6.475  28.105  -1.981  1.00  0.00    +0.131 C 
ATOM     61  C   UNK A   1      -7.003  26.956  -2.860  1.00  0.00    -0.033 C 
ATOM     62  C   UNK A   1      -7.633  29.034  -1.367  1.00  0.00    +0.266 C 
ATOM     63  O   UNK A   1      -7.444  29.710  -0.345  1.00  0.00    -0.270 OA
ATOM     64  N   UNK A   1      -8.728  29.222  -2.151  1.00  0.00    -0.236 N 
ATOM     65  C   UNK A   1      -9.844  28.202  -1.984  1.00  0.00    +0.131 C 
ATOM     66  C   UNK A   1     -10.085  27.835  -0.511  1.00  0.00    -0.033 C 
ATOM     67  C   UNK A   1     -11.223  28.681  -2.580  1.00  0.00    +0.266 C 
ATOM     68  O   UNK A   1     -11.787  29.710  -2.173  1.00  0.00    -0.270 OA
ATOM     69  N   UNK A   1     -11.720  27.881  -3.559  1.00  0.00    -0.236 N 
ATOM     70  C   UNK A   1     -12.598  26.734  -3.094  1.00  0.00    +0.136 C 
ATOM     71  C   UNK A   1     -14.109  27.094  -3.347  1.00  0.00    -0.015 C 
ATOM     72  C   UNK A   1     -15.052  25.965  -2.922  1.00  0.00    -0.060 C 
ATOM     73  C   UNK A   1     -14.548  28.377  -2.629  1.00  0.00    -0.060 C 
ATOM     74  C   UNK A   1     -12.292  25.388  -3.901  1.00  0.00    +0.267 C 
ATOM     75  O   UNK A   1     -12.245  25.384  -5.135  1.00  0.00    -0.270 OA
ATOM     76  N   UNK A   1     -12.224  24.311  -3.071  1.00  0.00    -0.235 N 
ATOM     77  C   UNK A   1     -11.759  22.995  -3.669  1.00  0.00    +0.143 C 
ATOM     78  C   UNK A   1     -10.790  22.208  -2.682  1.00  0.00    +0.027 C 
ATOM     79  S   UNK A   1      -9.002  22.111  -3.257  1.00  0.00    -0.140 S 
ATOM     80  C   UNK A   1     -12.982  22.089  -4.083  1.00  0.00    +0.267 C 
ATOM     81  O   UNK A   1     -13.029  21.536  -5.190  1.00  0.00    -0.270 OA
ATOM     82  N   UNK A   1     -13.911  21.925  -3.113  1.00  0.00    -0.238 N 
ATOM     83  C   UNK A   1     -15.206  21.449  -3.631  1.00  0.00    +0.140 C 
ATOM     84  C   UNK A   1     -16.289  22.038  -2.748  1.00  0.00    +0.325 C 
ATOM     85  O   UNK A   1     -17.489  21.767  -2.817  1.00  0.00    -0.250 OA
ATOM     86  O   UNK A   1     -15.804  22.937  -1.855  1.00  0.00    -0.480 OA
ATOM     87  C   UNK A   1      -9.566  17.357  -3.334  1.00  0.00    -0.059 C 
ATOM     88  C   UNK A   1      -9.317  16.550  -2.226  1.00  0.00    -0.058 C 
ATOM     89  C   UNK A   1      -8.710  17.069  -1.081  1.00  0.00    -0.038 C 
ATOM     90  C   UNK A   1      -8.299  16.154   0.106  1.00  0.00    +0.019 C 
ATOM     91  C   UNK A   1      -8.389  18.466  -1.108  1.00  0.00    -0.053 C 
ATOM     92  C   UNK A   1      -8.642  19.336  -2.232  1.00  0.00    -0.022 C 
ATOM     93  C   UNK A   1      -8.169  20.829  -2.127  1.00  0.00    +0.076 C 
ATOM     94  C   UNK A   1      -9.198  18.720  -3.380  1.00  0.00    -0.046 C 
ATOM     95  C   UNK A   1      -9.408  19.395  -4.709  1.00  0.00    -0.039 C 
ATOM     96  H   UNK A   1     -11.799  13.244   0.274  1.00  0.00    +0.060 HD
ATOM     97  H   UNK A   1     -12.316  12.645   3.245  1.00  0.00    +0.025 HD
ATOM     98  H   UNK A   1     -11.219  13.896   2.634  1.00  0.00    +0.025 HD
ATOM     99  H   UNK A   1     -12.947  14.022   2.325  1.00  0.00    +0.025 HD
ATOM    100  H   UNK A   1      -8.252  11.653   0.651  1.00  0.00    +0.067 HD
ATOM    101  H   UNK A   1      -7.288  13.832   1.541  1.00  0.00    +0.041 HD
ATOM    102  H   UNK A   1      -8.738  14.064   2.502  1.00  0.00    +0.041 HD
ATOM    103  H   UNK A   1      -5.861   8.845   1.873  1.00  0.00    +0.066 HD
ATOM    104  H   UNK A   1      -6.702  10.845  -0.230  1.00  0.00    +0.039 HD
ATOM    105  H   UNK A   1      -5.452   9.656  -0.451  1.00  0.00    +0.039 HD
ATOM    106  H   UNK A   1      -9.115   9.602   0.325  1.00  0.00    +0.159 HD
ATOM    107  H   UNK A   1      -8.261   9.199   1.512  1.00  0.00    +0.159 HD
ATOM    108  H   UNK A   1      -2.268  11.448   0.992  1.00  0.00    +0.066 HD
ATOM    109  H   UNK A   1      -4.381  11.792  -0.437  1.00  0.00    +0.032 HD
ATOM    110  H   UNK A   1      -5.289  13.715   0.941  1.00  0.00    +0.023 HD
ATOM    111  H   UNK A   1      -5.319  13.946  -0.804  1.00  0.00    +0.023 HD
ATOM    112  H   UNK A   1      -4.099  14.757   0.185  1.00  0.00    +0.023 HD
ATOM    113  H   UNK A   1      -2.008  12.063  -1.320  1.00  0.00    +0.023 HD
ATOM    114  H   UNK A   1      -2.299  13.805  -1.292  1.00  0.00    +0.023 HD
ATOM    115  H   UNK A   1      -3.350  12.763  -2.241  1.00  0.00    +0.023 HD
ATOM    116  H   UNK A   1      -2.358  15.947   1.914  1.00  0.00    +0.065 HD
ATOM    117  H   UNK A   1      -0.472  15.306   3.442  1.00  0.00    +0.026 HD
ATOM    118  H   UNK A   1      -0.157  16.896   2.733  1.00  0.00    +0.026 HD
ATOM    119  H   UNK A   1       0.679  15.471   2.106  1.00  0.00    +0.026 HD
ATOM    120  H   UNK A   1      -1.341  18.386  -1.636  1.00  0.00    +0.066 HD
ATOM    121  H   UNK A   1      -3.363  16.785  -1.139  1.00  0.00    +0.034 HD
ATOM    122  H   UNK A   1      -4.279  18.228  -0.808  1.00  0.00    +0.034 HD
ATOM    123  H   UNK A   1      -3.181  20.084  -3.387  1.00  0.00    +0.082 HD
ATOM    124  H   UNK A   1      -4.226  19.555  -5.566  1.00  0.00    +0.166 HD
ATOM    125  H   UNK A   1      -5.377  17.317  -6.923  1.00  0.00    +0.064 HD
ATOM    126  H   UNK A   1      -6.053  14.941  -6.491  1.00  0.00    +0.062 HD
ATOM    127  H   UNK A   1      -5.627  13.904  -4.265  1.00  0.00    +0.062 HD
ATOM    128  H   UNK A   1      -4.513  15.214  -2.484  1.00  0.00    +0.063 HD
ATOM    129  H   UNK A   1      -3.574  22.027  -2.018  1.00  0.00    +0.067 HD
ATOM    130  H   UNK A   1      -6.021  22.794  -1.113  1.00  0.00    +0.041 HD
ATOM    131  H   UNK A   1      -5.940  21.297  -0.175  1.00  0.00    +0.041 HD
ATOM    132  H   UNK A   1      -4.728  25.642   0.415  1.00  0.00    +0.069 HD
ATOM    133  H   UNK A   1      -2.454  25.578   1.193  1.00  0.00    +0.063 HD
ATOM    134  H   UNK A   1      -3.527  27.904   1.323  1.00  0.00    +0.026 HD
ATOM    135  H   UNK A   1      -1.756  27.814   1.426  1.00  0.00    +0.026 HD
ATOM    136  H   UNK A   1      -2.505  28.350  -0.059  1.00  0.00    +0.026 HD
ATOM    137  H   UNK A   1      -1.889  25.209  -1.071  1.00  0.00    +0.211 HD
ATOM    138  H   UNK A   1      -5.906  28.786  -2.629  1.00  0.00    +0.065 HD
ATOM    139  H   UNK A   1      -6.187  26.390  -3.326  1.00  0.00    +0.026 HD
ATOM    140  H   UNK A   1      -7.624  27.328  -3.679  1.00  0.00    +0.026 HD
ATOM    141  H   UNK A   1      -7.596  26.248  -2.272  1.00  0.00    +0.026 HD
ATOM    142  H   UNK A   1      -9.591  27.277  -2.513  1.00  0.00    +0.065 HD
ATOM    143  H   UNK A   1      -9.234  27.265  -0.114  1.00  0.00    +0.026 HD
ATOM    144  H   UNK A   1     -10.978  27.215  -0.394  1.00  0.00    +0.026 HD
ATOM    145  H   UNK A   1     -10.223  28.725   0.111  1.00  0.00    +0.026 HD
ATOM    146  H   UNK A   1     -12.455  26.532  -2.023  1.00  0.00    +0.066 HD
ATOM    147  H   UNK A   1     -14.263  27.252  -4.425  1.00  0.00    +0.032 HD
ATOM    148  H   UNK A   1     -14.877  25.673  -1.882  1.00  0.00    +0.023 HD
ATOM    149  H   UNK A   1     -16.099  26.273  -3.022  1.00  0.00    +0.023 HD
ATOM    150  H   UNK A   1     -14.925  25.082  -3.558  1.00  0.00    +0.023 HD
ATOM    151  H   UNK A   1     -14.274  28.351  -1.569  1.00  0.00    +0.023 HD
ATOM    152  H   UNK A   1     -15.632  28.519  -2.696  1.00  0.00    +0.023 HD
ATOM    153  H   UNK A   1     -14.091  29.258  -3.089  1.00  0.00    +0.023 HD
ATOM    154  H   UNK A   1     -11.210  23.168  -4.609  1.00  0.00    +0.067 HD
ATOM    155  H   UNK A   1     -11.134  21.177  -2.545  1.00  0.00    +0.041 HD
ATOM    156  H   UNK A   1     -10.764  22.698  -1.701  1.00  0.00    +0.041 HD
ATOM    157  H   UNK A   1     -15.434  21.785  -4.649  1.00  0.00    +0.064 HD
ATOM    158  H   UNK A   1     -15.278  20.359  -3.589  1.00  0.00    +0.064 HD
ATOM    159  H   UNK A   1     -14.813  22.967  -2.080  1.00  0.00    +0.296 HD
ATOM    160  H   UNK A   1     -10.031  16.890  -4.202  1.00  0.00    +0.063 HD
ATOM    161  H   UNK A   1      -9.572  15.497  -2.298  1.00  0.00    +0.063 HD
ATOM    162  H   UNK A   1      -8.575  16.656   1.038  1.00  0.00    +0.043 HD
ATOM    163  H   UNK A   1      -7.211  16.025   0.069  1.00  0.00    +0.043 HD
ATOM    164  H   UNK A   1      -7.879  18.880  -0.235  1.00  0.00    +0.063 HD
ATOM    165  H   UNK A   1      -8.291  21.181  -1.098  1.00  0.00    +0.058 HD
ATOM    166  H   UNK A   1      -9.634  18.654  -5.487  1.00  0.00    +0.028 HD
ATOM    167  H   UNK A   1     -10.269  20.068  -4.679  1.00  0.00    +0.028 HD
ATOM    168  H   UNK A   1      -8.499  19.913  -5.034  1.00  0.00    +0.028 HD
ENDROOT
TORSDOF 0
ENDMDL
MODEL 2
REMARK VINA RESULT:      -5.6     10.227     13.302
REMARK  Generated by RDKit with Gasteiger charges
REMARK  --------------------------------------------------
ROOT
ATOM      1  N   UNK A   1     -17.187  17.020  10.771  1.00  0.00    -0.131 N 
ATOM      2  C   UNK A   1     -16.656  16.299   9.595  1.00  0.00    +0.121 C 
ATOM      3  C   UNK A   1     -15.326  16.948   9.215  1.00  0.00    -0.037 C 
ATOM      4  C   UNK A   1     -16.662  14.788   9.917  1.00  0.00    +0.262 C 
ATOM      5  O   UNK A   1     -17.656  14.250  10.423  1.00  0.00    -0.271 OA
ATOM      6  N   UNK A   1     -15.514  14.189   9.595  1.00  0.00    -0.236 N 
ATOM      7  C   UNK A   1     -15.634  13.167   8.478  1.00  0.00    +0.143 C 
ATOM      8  C   UNK A   1     -15.490  13.778   7.025  1.00  0.00    +0.025 C 
ATOM      9  S   UNK A   1     -16.957  14.750   6.412  1.00  0.00    -0.154 S 
ATOM     10  C   UNK A   1     -14.425  12.162   8.693  1.00  0.00    +0.267 C 
ATOM     11  O   UNK A   1     -13.291  12.490   8.320  1.00  0.00    -0.270 OA
ATOM     12  N   UNK A   1     -14.650  11.109   9.506  1.00  0.00    -0.235 N 
ATOM     13  C   UNK A   1     -15.392   9.885   9.066  1.00  0.00    +0.143 C 
ATOM     14  C   UNK A   1     -16.936  10.059   9.040  1.00  0.00    +0.058 C 
ATOM     15  C   UNK A   1     -17.529  10.369  10.420  1.00  0.00    +0.220 C 
ATOM     16  O   UNK A   1     -18.447   9.727  10.944  1.00  0.00    -0.275 OA
ATOM     17  N   UNK A   1     -16.966  11.440  11.083  1.00  0.00    -0.370 N 
ATOM     18  C   UNK A   1     -14.970   8.763   8.066  1.00  0.00    +0.267 C 
ATOM     19  O   UNK A   1     -15.177   7.589   8.424  1.00  0.00    -0.270 OA
ATOM     20  N   UNK A   1     -14.485   9.144   6.870  1.00  0.00    -0.236 N 
ATOM     21  C   UNK A   1     -15.126   8.456   5.650  1.00  0.00    +0.136 C 
ATOM     22  C   UNK A   1     -16.508   9.148   5.393  1.00  0.00    -0.015 C 
ATOM     23  C   UNK A   1     -16.365  10.557   4.817  1.00  0.00    -0.060 C 
ATOM     24  C   UNK A   1     -17.494   8.318   4.565  1.00  0.00    -0.060 C 
ATOM     25  C   UNK A   1     -14.143   8.422   4.373  1.00  0.00    +0.267 C 
ATOM     26  O   UNK A   1     -12.918   8.528   4.494  1.00  0.00    -0.270 OA
ATOM     27  N   UNK A   1     -14.769   8.060   3.218  1.00  0.00    -0.236 N 
ATOM     28  C   UNK A   1     -14.273   8.761   1.962  1.00  0.00    +0.131 C 
ATOM     29  C   UNK A   1     -13.065   7.995   1.399  1.00  0.00    -0.033 C 
ATOM     30  C   UNK A   1     -15.345   8.859   0.783  1.00  0.00    +0.266 C 
ATOM     31  O   UNK A   1     -16.180   7.966   0.593  1.00  0.00    -0.270 OA
ATOM     32  N   UNK A   1     -15.135   9.942  -0.028  1.00  0.00    -0.236 N 
ATOM     33  C   UNK A   1     -16.391  10.596  -0.609  1.00  0.00    +0.138 C 
ATOM     34  C   UNK A   1     -17.169  11.341   0.509  1.00  0.00    +0.006 C 
ATOM     35  C   UNK A   1     -18.659  11.513   0.300  1.00  0.00    -0.020 C 
ATOM     36  C   UNK A   1     -19.313  11.856  -0.869  1.00  0.00    +0.005 C 
ATOM     37  N   UNK A   1     -20.620  12.113  -0.581  1.00  0.00    -0.361 N 
ATOM     38  C   UNK A   1     -20.890  11.832   0.736  1.00  0.00    +0.046 C 
ATOM     39  C   UNK A   1     -22.081  11.929   1.473  1.00  0.00    -0.038 C 
ATOM     40  C   UNK A   1     -22.023  11.615   2.839  1.00  0.00    -0.060 C 
ATOM     41  C   UNK A   1     -20.825  11.236   3.442  1.00  0.00    -0.062 C 
ATOM     42  C   UNK A   1     -19.654  11.153   2.684  1.00  0.00    -0.053 C 
ATOM     43  C   UNK A   1     -19.677  11.449   1.309  1.00  0.00    +0.003 C 
ATOM     44  C   UNK A   1     -16.163  11.508  -1.930  1.00  0.00    +0.267 C 
ATOM     45  O   UNK A   1     -16.283  10.970  -3.041  1.00  0.00    -0.270 OA
ATOM     46  N   UNK A   1     -15.882  12.823  -1.713  1.00  0.00    -0.235 N 
ATOM     47  C   UNK A   1     -16.510  13.877  -2.651  1.00  0.00    +0.143 C 
ATOM     48  C   UNK A   1     -16.854  15.189  -1.804  1.00  0.00    +0.027 C 
ATOM     49  S   UNK A   1     -18.505  15.229  -0.901  1.00  0.00    -0.140 S 
ATOM     50  C   UNK A   1     -15.565  14.378  -3.856  1.00  0.00    +0.267 C 
ATOM     51  O   UNK A   1     -14.332  14.320  -3.808  1.00  0.00    -0.270 OA
ATOM     52  N   UNK A   1     -16.287  14.900  -4.898  1.00  0.00    -0.233 N 
ATOM     53  C   UNK A   1     -15.516  15.821  -5.854  1.00  0.00    +0.160 C 
ATOM     54  C   UNK A   1     -14.589  14.967  -6.778  1.00  0.00    +0.083 C 
ATOM     55  C   UNK A   1     -13.989  15.715  -7.960  1.00  0.00    -0.036 C 
ATOM     56  O   UNK A   1     -15.288  13.802  -7.272  1.00  0.00    -0.391 OA
ATOM     57  C   UNK A   1     -16.477  16.717  -6.757  1.00  0.00    +0.269 C 
ATOM     58  O   UNK A   1     -17.361  16.219  -7.467  1.00  0.00    -0.270 OA
ATOM     59  N   UNK A   1     -16.127  18.037  -6.737  1.00  0.00    -0.236 N 
ATOM     60  C   UNK A   1     -17.270  19.017  -6.964  1.00  0.00    +0.131 C 
ATOM     61  C   UNK A   1     -18.331  18.820  -5.865  1.00  0.00    -0.033 C 
ATOM     62  C   UNK A   1     -16.763  20.534  -7.111  1.00  0.00    +0.266 C 
ATOM     63  O   UNK A   1     -15.663  20.802  -7.616  1.00  0.00    -0.270 OA
ATOM     64  N   UNK A   1     -17.692  21.500  -6.879  1.00  0.00    -0.236 N 
ATOM     65  C   UNK A   1     -17.808  21.973  -5.437  1.00  0.00    +0.131 C 
ATOM     66  C   UNK A   1     -16.436  22.135  -4.763  1.00  0.00    -0.033 C 
ATOM     67  C   UNK A   1     -18.569  23.346  -5.289  1.00  0.00    +0.266 C 
ATOM     68  O   UNK A   1     -18.160  24.381  -5.840  1.00  0.00    -0.270 OA
ATOM     69  N   UNK A   1     -19.689  23.287  -4.522  1.00  0.00    -0.236 N 
ATOM     70  C   UNK A   1     -19.486  23.520  -3.036  1.00  0.00    +0.136 C 
ATOM     71  C   UNK A   1     -19.943  24.978  -2.666  1.00  0.00    -0.015 C 
ATOM     72  C   UNK A   1     -19.788  25.272  -1.171  1.00  0.00    -0.060 C 
ATOM     73  C   UNK A   1     -19.184  26.060  -3.445  1.00  0.00    -0.060 C 
ATOM     74  C   UNK A   1     -20.360  22.512  -2.154  1.00  0.00    +0.267 C 
ATOM     75  O   UNK A   1     -21.565  22.355  -2.376  1.00  0.00    -0.270 OA
ATOM     76  N   UNK A   1     -19.640  21.996  -1.121  1.00  0.00    -0.235 N 
ATOM     77  C   UNK A   1     -20.280  20.886  -0.307  1.00  0.00    +0.143 C 
ATOM     78  C   UNK A   1     -19.231  19.751   0.072  1.00  0.00    +0.027 C 
ATOM     79  S   UNK A   1     -19.517  18.105  -0.794  1.00  0.00    -0.140 S 
ATOM     80  C   UNK A   1     -20.973  21.454   0.992  1.00  0.00    +0.267 C 
ATOM     81  O   UNK A   1     -22.121  21.118   1.309  1.00  0.00    -0.270 OA
ATOM     82  N   UNK A   1     -20.187  22.265   1.737  1.00  0.00    -0.238 N 
ATOM     83  C   UNK A   1     -20.950  23.099   2.682  1.00  0.00    +0.140 C 
ATOM     84  C   UNK A   1     -20.201  24.407   2.837  1.00  0.00    +0.325 C 
ATOM     85  O   UNK A   1     -20.489  25.302   3.633  1.00  0.00    -0.250 OA
ATOM     86  O   UNK A   1     -19.158  24.517   1.976  1.00  0.00    -0.480 OA
ATOM     87  C   UNK A   1     -20.148  16.226   3.564  1.00  0.00    -0.059 C 
ATOM     88  C   UNK A   1     -19.098  15.714   4.323  1.00  0.00    -0.058 C 
ATOM     89  C   UNK A   1     -17.825  15.553   3.773  1.00  0.00    -0.038 C 
ATOM     90  C   UNK A   1     -16.682  14.855   4.562  1.00  0.00    +0.019 C 
ATOM     91  C   UNK A   1     -17.662  15.967   2.410  1.00  0.00    -0.053 C 
ATOM     92  C   UNK A   1     -18.723  16.513   1.596  1.00  0.00    -0.022 C 
ATOM     93  C   UNK A   1     -18.397  16.855   0.099  1.00  0.00    +0.076 C 
ATOM     94  C   UNK A   1     -20.000  16.581   2.205  1.00  0.00    -0.046 C 
ATOM     95  C   UNK A   1     -21.273  16.974   1.504  1.00  0.00    -0.039 C 
ATOM     96  H   UNK A   1     -17.367  16.448   8.773  1.00  0.00    +0.060 HD
ATOM     97  H   UNK A   1     -14.590  16.872  10.026  1.00  0.00    +0.025 HD
ATOM     98  H   UNK A   1     -14.891  16.489   8.321  1.00  0.00    +0.025 HD
ATOM     99  H   UNK A   1     -15.462  18.015   8.989  1.00  0.00    +0.025 HD
ATOM    100  H   UNK A   1     -16.578  12.631   8.512  1.00  0.00    +0.067 HD
ATOM    101  H   UNK A   1     -15.336  12.963   6.317  1.00  0.00    +0.041 HD
ATOM    102  H   UNK A   1     -14.604  14.419   6.968  1.00  0.00    +0.041 HD
ATOM    103  H   UNK A   1     -15.266   9.287   9.992  1.00  0.00    +0.066 HD
ATOM    104  H   UNK A   1     -17.272  10.811   8.323  1.00  0.00    +0.039 HD
ATOM    105  H   UNK A   1     -17.403   9.122   8.714  1.00  0.00    +0.039 HD
ATOM    106  H   UNK A   1     -17.238  12.329  10.640  1.00  0.00    +0.159 HD
ATOM    107  H   UNK A   1     -15.974  11.501  10.775  1.00  0.00    +0.159 HD
ATOM    108  H   UNK A   1     -15.297   7.395   5.883  1.00  0.00    +0.066 HD
ATOM    109  H   UNK A   1     -17.008   9.258   6.362  1.00  0.00    +0.032 HD
ATOM    110  H   UNK A   1     -15.614  11.123   5.364  1.00  0.00    +0.023 HD
ATOM    111  H   UNK A   1     -17.309  11.102   4.891  1.00  0.00    +0.023 HD
ATOM    112  H   UNK A   1     -16.062  10.543   3.772  1.00  0.00    +0.023 HD
ATOM    113  H   UNK A   1     -17.465   7.262   4.848  1.00  0.00    +0.023 HD
ATOM    114  H   UNK A   1     -17.314   8.380   3.489  1.00  0.00    +0.023 HD
ATOM    115  H   UNK A   1     -18.518   8.682   4.734  1.00  0.00    +0.023 HD
ATOM    116  H   UNK A   1     -13.966   9.791   2.197  1.00  0.00    +0.065 HD
ATOM    117  H   UNK A   1     -12.224   7.987   2.099  1.00  0.00    +0.026 HD
ATOM    118  H   UNK A   1     -12.714   8.438   0.460  1.00  0.00    +0.026 HD
ATOM    119  H   UNK A   1     -13.334   6.951   1.187  1.00  0.00    +0.026 HD
ATOM    120  H   UNK A   1     -17.051   9.795  -0.978  1.00  0.00    +0.066 HD
ATOM    121  H   UNK A   1     -17.045  10.791   1.452  1.00  0.00    +0.034 HD
ATOM    122  H   UNK A   1     -16.727  12.329   0.699  1.00  0.00    +0.034 HD
ATOM    123  H   UNK A   1     -18.902  12.062  -1.851  1.00  0.00    +0.082 HD
ATOM    124  H   UNK A   1     -21.261  12.500  -1.253  1.00  0.00    +0.166 HD
ATOM    125  H   UNK A   1     -22.999  12.257   1.005  1.00  0.00    +0.064 HD
ATOM    126  H   UNK A   1     -22.915  11.703   3.449  1.00  0.00    +0.062 HD
ATOM    127  H   UNK A   1     -20.762  11.027   4.506  1.00  0.00    +0.062 HD
ATOM    128  H   UNK A   1     -18.705  10.880   3.136  1.00  0.00    +0.063 HD
ATOM    129  H   UNK A   1     -17.430  13.494  -3.114  1.00  0.00    +0.067 HD
ATOM    130  H   UNK A   1     -16.863  16.070  -2.456  1.00  0.00    +0.041 HD
ATOM    131  H   UNK A   1     -16.075  15.344  -1.050  1.00  0.00    +0.041 HD
ATOM    132  H   UNK A   1     -14.875  16.509  -5.280  1.00  0.00    +0.069 HD
ATOM    133  H   UNK A   1     -13.750  14.586  -6.185  1.00  0.00    +0.063 HD
ATOM    134  H   UNK A   1     -13.568  16.679  -7.657  1.00  0.00    +0.026 HD
ATOM    135  H   UNK A   1     -13.191  15.115  -8.410  1.00  0.00    +0.026 HD
ATOM    136  H   UNK A   1     -14.717  15.889  -8.758  1.00  0.00    +0.026 HD
ATOM    137  H   UNK A   1     -15.918  13.705  -6.509  1.00  0.00    +0.211 HD
ATOM    138  H   UNK A   1     -17.747  18.803  -7.930  1.00  0.00    +0.065 HD
ATOM    139  H   UNK A   1     -18.712  17.793  -5.843  1.00  0.00    +0.026 HD
ATOM    140  H   UNK A   1     -19.199  19.465  -6.024  1.00  0.00    +0.026 HD
ATOM    141  H   UNK A   1     -17.918  19.036  -4.874  1.00  0.00    +0.026 HD
ATOM    142  H   UNK A   1     -18.376  21.246  -4.847  1.00  0.00    +0.065 HD
ATOM    143  H   UNK A   1     -15.964  21.155  -4.613  1.00  0.00    +0.026 HD
ATOM    144  H   UNK A   1     -16.526  22.610  -3.782  1.00  0.00    +0.026 HD
ATOM    145  H   UNK A   1     -15.761  22.754  -5.363  1.00  0.00    +0.026 HD
ATOM    146  H   UNK A   1     -18.431  23.395  -2.754  1.00  0.00    +0.066 HD
ATOM    147  H   UNK A   1     -21.012  25.090  -2.906  1.00  0.00    +0.032 HD
ATOM    148  H   UNK A   1     -18.768  25.072  -0.832  1.00  0.00    +0.023 HD
ATOM    149  H   UNK A   1     -20.026  26.319  -0.952  1.00  0.00    +0.023 HD
ATOM    150  H   UNK A   1     -20.478  24.666  -0.575  1.00  0.00    +0.023 HD
ATOM    151  H   UNK A   1     -18.102  25.910  -3.379  1.00  0.00    +0.023 HD
ATOM    152  H   UNK A   1     -19.411  27.060  -3.059  1.00  0.00    +0.023 HD
ATOM    153  H   UNK A   1     -19.476  26.061  -4.499  1.00  0.00    +0.023 HD
ATOM    154  H   UNK A   1     -21.098  20.411  -0.873  1.00  0.00    +0.067 HD
ATOM    155  H   UNK A   1     -19.253  19.549   1.148  1.00  0.00    +0.041 HD
ATOM    156  H   UNK A   1     -18.216  20.062  -0.203  1.00  0.00    +0.041 HD
ATOM    157  H   UNK A   1     -21.954  23.367   2.334  1.00  0.00    +0.064 HD
ATOM    158  H   UNK A   1     -21.027  22.624   3.664  1.00  0.00    +0.064 HD
ATOM    159  H   UNK A   1     -19.216  23.656   1.440  1.00  0.00    +0.296 HD
ATOM    160  H   UNK A   1     -21.120  16.315   4.046  1.00  0.00    +0.063 HD
ATOM    161  H   UNK A   1     -19.312  15.405   5.342  1.00  0.00    +0.063 HD
ATOM    162  H   UNK A   1     -15.762  15.429   4.414  1.00  0.00    +0.043 HD
ATOM    163  H   UNK A   1     -16.555  13.848   4.147  1.00  0.00    +0.043 HD
ATOM    164  H   UNK A   1     -16.683  15.814   1.953  1.00  0.00    +0.063 HD
ATOM    165  H   UNK A   1     -17.373  17.231   0.023  1.00  0.00    +0.058 HD
ATOM    166  H   UNK A   1     -22.145  16.729   2.124  1.00  0.00    +0.028 HD
ATOM    167  H   UNK A   1     -21.317  18.054   1.340  1.00  0.00    +0.028 HD
ATOM    168  H   UNK A   1     -21.395  16.416   0.569  1.00  0.00    +0.028 HD
ENDROOT
TORSDOF 0
ENDMDL
MODEL 3
REMARK VINA RESULT:      -4.3      5.536     10.065
REMARK  Generated by RDKit with Gasteiger charges
REMARK  --------------------------------------------------
ROOT
ATOM      1  N   UNK A   1     -19.544  14.431   1.077  1.00  0.00    -0.131 N 
ATOM      2  C   UNK A   1     -18.241  14.236   1.746  1.00  0.00    +0.121 C 
ATOM      3  C   UNK A   1     -17.828  15.573   2.357  1.00  0.00    -0.037 C 
ATOM      4  C   UNK A   1     -18.364  13.015   2.686  1.00  0.00    +0.262 C 
ATOM      5  O   UNK A   1     -18.885  11.962   2.295  1.00  0.00    -0.271 OA
ATOM      6  N   UNK A   1     -17.864  13.247   3.900  1.00  0.00    -0.236 N 
ATOM      7  C   UNK A   1     -16.640  12.417   4.242  1.00  0.00    +0.143 C 
ATOM      8  C   UNK A   1     -15.271  13.059   3.774  1.00  0.00    +0.025 C 
ATOM      9  S   UNK A   1     -14.926  12.974   1.945  1.00  0.00    -0.154 S 
ATOM     10  C   UNK A   1     -16.611  12.338   5.827  1.00  0.00    +0.267 C 
ATOM     11  O   UNK A   1     -16.181  13.301   6.473  1.00  0.00    -0.270 OA
ATOM     12  N   UNK A   1     -17.299  11.325   6.395  1.00  0.00    -0.235 N 
ATOM     13  C   UNK A   1     -16.773   9.925   6.467  1.00  0.00    +0.143 C 
ATOM     14  C   UNK A   1     -16.912   9.131   5.138  1.00  0.00    +0.058 C 
ATOM     15  C   UNK A   1     -18.369   8.953   4.694  1.00  0.00    +0.220 C 
ATOM     16  O   UNK A   1     -18.887   7.862   4.426  1.00  0.00    -0.275 OA
ATOM     17  N   UNK A   1     -19.111  10.113   4.605  1.00  0.00    -0.370 N 
ATOM     18  C   UNK A   1     -15.602   9.335   7.314  1.00  0.00    +0.267 C 
ATOM     19  O   UNK A   1     -15.823   8.259   7.900  1.00  0.00    -0.270 OA
ATOM     20  N   UNK A   1     -14.426   9.989   7.292  1.00  0.00    -0.236 N 
ATOM     21  C   UNK A   1     -13.191   9.113   7.008  1.00  0.00    +0.136 C 
ATOM     22  C   UNK A   1     -13.154   8.840   5.465  1.00  0.00    -0.015 C 
ATOM     23  C   UNK A   1     -12.754  10.075   4.657  1.00  0.00    -0.060 C 
ATOM     24  C   UNK A   1     -12.319   7.624   5.051  1.00  0.00    -0.060 C 
ATOM     25  C   UNK A   1     -11.836   9.741   7.613  1.00  0.00    +0.267 C 
ATOM     26  O   UNK A   1     -11.857  10.561   8.538  1.00  0.00    -0.270 OA
ATOM     27  N   UNK A   1     -10.706   9.130   7.157  1.00  0.00    -0.236 N 
ATOM     28  C   UNK A   1      -9.511  10.048   6.945  1.00  0.00    +0.131 C 
ATOM     29  C   UNK A   1      -8.745  10.196   8.269  1.00  0.00    -0.033 C 
ATOM     30  C   UNK A   1      -8.459   9.534   5.860  1.00  0.00    +0.266 C 
ATOM     31  O   UNK A   1      -8.231   8.329   5.699  1.00  0.00    -0.270 OA
ATOM     32  N   UNK A   1      -7.779  10.562   5.263  1.00  0.00    -0.236 N 
ATOM     33  C   UNK A   1      -7.404  10.351   3.793  1.00  0.00    +0.138 C 
ATOM     34  C   UNK A   1      -8.676  10.419   2.906  1.00  0.00    +0.006 C 
ATOM     35  C   UNK A   1      -8.628   9.665   1.592  1.00  0.00    -0.020 C 
ATOM     36  C   UNK A   1      -7.578   9.599   0.695  1.00  0.00    +0.005 C 
ATOM     37  N   UNK A   1      -8.016   8.999  -0.448  1.00  0.00    -0.361 N 
ATOM     38  C   UNK A   1      -9.305   8.550  -0.296  1.00  0.00    +0.046 C 
ATOM     39  C   UNK A   1     -10.154   7.871  -1.185  1.00  0.00    -0.038 C 
ATOM     40  C   UNK A   1     -11.457   7.592  -0.746  1.00  0.00    -0.060 C 
ATOM     41  C   UNK A   1     -11.893   7.985   0.517  1.00  0.00    -0.062 C 
ATOM     42  C   UNK A   1     -11.027   8.663   1.379  1.00  0.00    -0.053 C 
ATOM     43  C   UNK A   1      -9.710   8.950   0.978  1.00  0.00    +0.003 C 
ATOM     44  C   UNK A   1      -6.197  11.277   3.234  1.00  0.00    +0.267 C 
ATOM     45  O   UNK A   1      -5.042  10.830   3.290  1.00  0.00    -0.270 OA
ATOM     46  N   UNK A   1      -6.556  12.482   2.710  1.00  0.00    -0.235 N 
ATOM     47  C   UNK A   1      -5.824  12.986   1.447  1.00  0.00    +0.143 C 
ATOM     48  C   UNK A   1      -6.861  13.780   0.525  1.00  0.00    +0.027 C 
ATOM     49  S   UNK A   1      -7.909  12.770  -0.668  1.00  0.00    -0.140 S 
ATOM     50  C   UNK A   1      -4.612  14.013   1.716  1.00  0.00    +0.267 C 
ATOM     51  O   UNK A   1      -4.539  14.711   2.734  1.00  0.00    -0.270 OA
ATOM     52  N   UNK A   1      -3.716  14.042   0.678  1.00  0.00    -0.233 N 
ATOM     53  C   UNK A   1      -2.821  15.286   0.598  1.00  0.00    +0.160 C 
ATOM     54  C   UNK A   1      -1.713  15.212   1.698  1.00  0.00    +0.083 C 
ATOM     55  C   UNK A   1      -0.588  16.226   1.551  1.00  0.00    -0.036 C 
ATOM     56  O   UNK A   1      -1.139  13.886   1.760  1.00  0.00    -0.391 OA
ATOM     57  C   UNK A   1      -2.133  15.461  -0.830  1.00  0.00    +0.269 C 
ATOM     58  O   UNK A   1      -1.449  14.565  -1.341  1.00  0.00    -0.270 OA
ATOM     59  N   UNK A   1      -2.291  16.722  -1.332  1.00  0.00    -0.236 N 
ATOM     60  C   UNK A   1      -2.299  16.820  -2.851  1.00  0.00    +0.131 C 
ATOM     61  C   UNK A   1      -3.456  15.971  -3.408  1.00  0.00    -0.033 C 
ATOM     62  C   UNK A   1      -2.304  18.340  -3.371  1.00  0.00    +0.266 C 
ATOM     63  O   UNK A   1      -1.739  19.243  -2.735  1.00  0.00    -0.270 OA
ATOM     64  N   UNK A   1      -2.743  18.536  -4.643  1.00  0.00    -0.236 N 
ATOM     65  C   UNK A   1      -4.238  18.773  -4.797  1.00  0.00    +0.131 C 
ATOM     66  C   UNK A   1      -4.799  19.699  -3.706  1.00  0.00    -0.033 C 
ATOM     67  C   UNK A   1      -4.632  19.398  -6.190  1.00  0.00    +0.266 C 
ATOM     68  O   UNK A   1      -4.184  20.495  -6.563  1.00  0.00    -0.270 OA
ATOM     69  N   UNK A   1      -5.484  18.637  -6.926  1.00  0.00    -0.236 N 
ATOM     70  C   UNK A   1      -6.963  18.873  -6.678  1.00  0.00    +0.136 C 
ATOM     71  C   UNK A   1      -7.559  19.739  -7.849  1.00  0.00    -0.015 C 
ATOM     72  C   UNK A   1      -9.059  19.994  -7.674  1.00  0.00    -0.060 C 
ATOM     73  C   UNK A   1      -6.860  21.096  -8.006  1.00  0.00    -0.060 C 
ATOM     74  C   UNK A   1      -7.784  17.501  -6.640  1.00  0.00    +0.267 C 
ATOM     75  O   UNK A   1      -7.655  16.659  -7.534  1.00  0.00    -0.270 OA
ATOM     76  N   UNK A   1      -8.671  17.477  -5.608  1.00  0.00    -0.235 N 
ATOM     77  C   UNK A   1      -9.390  16.168  -5.334  1.00  0.00    +0.143 C 
ATOM     78  C   UNK A   1      -9.521  15.881  -3.775  1.00  0.00    +0.027 C 
ATOM     79  S   UNK A   1      -8.479  14.442  -3.157  1.00  0.00    -0.140 S 
ATOM     80  C   UNK A   1     -10.809  16.138  -6.023  1.00  0.00    +0.267 C 
ATOM     81  O   UNK A   1     -11.185  15.162  -6.685  1.00  0.00    -0.270 OA
ATOM     82  N   UNK A   1     -11.578  17.223  -5.768  1.00  0.00    -0.238 N 
ATOM     83  C   UNK A   1     -12.688  17.379  -6.724  1.00  0.00    +0.140 C 
ATOM     84  C   UNK A   1     -12.942  18.865  -6.883  1.00  0.00    +0.325 C 
ATOM     85  O   UNK A   1     -13.870  19.364  -7.521  1.00  0.00    -0.250 OA
ATOM     86  O   UNK A   1     -12.010  19.624  -6.253  1.00  0.00    -0.480 OA
ATOM     87  C   UNK A   1     -12.597  12.357  -1.884  1.00  0.00    -0.059 C 
ATOM     88  C   UNK A   1     -13.184  12.547  -0.635  1.00  0.00    -0.058 C 
ATOM     89  C   UNK A   1     -12.504  13.216   0.384  1.00  0.00    -0.038 C 
ATOM     90  C   UNK A   1     -13.087  13.313   1.821  1.00  0.00    +0.019 C 
ATOM     91  C   UNK A   1     -11.197  13.708   0.061  1.00  0.00    -0.053 C 
ATOM     92  C   UNK A   1     -10.561  13.541  -1.224  1.00  0.00    -0.022 C 
ATOM     93  C   UNK A   1      -9.096  14.081  -1.395  1.00  0.00    +0.076 C 
ATOM     94  C   UNK A   1     -11.288  12.793  -2.183  1.00  0.00    -0.046 C 
ATOM     95  C   UNK A   1     -10.763  12.370  -3.529  1.00  0.00    -0.039 C 
ATOM     96  H   UNK A   1     -17.514  13.964   0.972  1.00  0.00    +0.060 HD
ATOM     97  H   UNK A   1     -18.551  15.919   3.107  1.00  0.00    +0.025 HD
ATOM     98  H   UNK A   1     -16.846  15.515   2.838  1.00  0.00    +0.025 HD
ATOM     99  H   UNK A   1     -17.755  16.351   1.584  1.00  0.00    +0.025 HD
ATOM    100  H   UNK A   1     -16.690  11.418   3.817  1.00  0.00    +0.067 HD
ATOM    101  H   UNK A   1     -14.452  12.538   4.272  1.00  0.00    +0.041 HD
ATOM    102  H   UNK A   1     -15.216  14.107   4.087  1.00  0.00    +0.041 HD
ATOM    103  H   UNK A   1     -17.599   9.481   7.060  1.00  0.00    +0.066 HD
ATOM    104  H   UNK A   1     -16.332   9.561   4.318  1.00  0.00    +0.039 HD
ATOM    105  H   UNK A   1     -16.512   8.119   5.274  1.00  0.00    +0.039 HD
ATOM    106  H   UNK A   1     -18.813  10.677   3.795  1.00  0.00    +0.159 HD
ATOM    107  H   UNK A   1     -18.723  10.776   5.307  1.00  0.00    +0.159 HD
ATOM    108  H   UNK A   1     -13.300   8.155   7.536  1.00  0.00    +0.066 HD
ATOM    109  H   UNK A   1     -14.171   8.579   5.151  1.00  0.00    +0.032 HD
ATOM    110  H   UNK A   1     -13.299  10.953   4.998  1.00  0.00    +0.023 HD
ATOM    111  H   UNK A   1     -12.985   9.934   3.597  1.00  0.00    +0.023 HD
ATOM    112  H   UNK A   1     -11.693  10.297   4.746  1.00  0.00    +0.023 HD
ATOM    113  H   UNK A   1     -12.459   6.788   5.743  1.00  0.00    +0.023 HD
ATOM    114  H   UNK A   1     -11.248   7.834   4.995  1.00  0.00    +0.023 HD
ATOM    115  H   UNK A   1     -12.628   7.287   4.051  1.00  0.00    +0.023 HD
ATOM    116  H   UNK A   1      -9.848  11.042   6.612  1.00  0.00    +0.065 HD
ATOM    117  H   UNK A   1      -9.359  10.664   9.046  1.00  0.00    +0.026 HD
ATOM    118  H   UNK A   1      -7.844  10.806   8.143  1.00  0.00    +0.026 HD
ATOM    119  H   UNK A   1      -8.426   9.214   8.643  1.00  0.00    +0.026 HD
ATOM    120  H   UNK A   1      -6.997   9.332   3.690  1.00  0.00    +0.066 HD
ATOM    121  H   UNK A   1      -9.525  10.012   3.471  1.00  0.00    +0.034 HD
ATOM    122  H   UNK A   1      -8.951  11.462   2.698  1.00  0.00    +0.034 HD
ATOM    123  H   UNK A   1      -6.598  10.059   0.750  1.00  0.00    +0.082 HD
ATOM    124  H   UNK A   1      -7.461   8.952  -1.286  1.00  0.00    +0.166 HD
ATOM    125  H   UNK A   1      -9.819   7.600  -2.177  1.00  0.00    +0.064 HD
ATOM    126  H   UNK A   1     -12.152   7.093  -1.413  1.00  0.00    +0.062 HD
ATOM    127  H   UNK A   1     -12.911   7.806   0.852  1.00  0.00    +0.062 HD
ATOM    128  H   UNK A   1     -11.351   8.998   2.359  1.00  0.00    +0.063 HD
ATOM    129  H   UNK A   1      -5.401  12.147   0.876  1.00  0.00    +0.067 HD
ATOM    130  H   UNK A   1      -6.331  14.507  -0.102  1.00  0.00    +0.041 HD
ATOM    131  H   UNK A   1      -7.554  14.339   1.164  1.00  0.00    +0.041 HD
ATOM    132  H   UNK A   1      -3.418  16.193   0.784  1.00  0.00    +0.069 HD
ATOM    133  H   UNK A   1      -2.173  15.388   2.677  1.00  0.00    +0.063 HD
ATOM    134  H   UNK A   1      -0.973  17.232   1.359  1.00  0.00    +0.026 HD
ATOM    135  H   UNK A   1       0.007  16.253   2.471  1.00  0.00    +0.026 HD
ATOM    136  H   UNK A   1       0.110  15.963   0.751  1.00  0.00    +0.026 HD
ATOM    137  H   UNK A   1      -1.938  13.392   1.434  1.00  0.00    +0.211 HD
ATOM    138  H   UNK A   1      -1.361  16.408  -3.248  1.00  0.00    +0.065 HD
ATOM    139  H   UNK A   1      -3.380  14.922  -3.098  1.00  0.00    +0.026 HD
ATOM    140  H   UNK A   1      -3.463  15.966  -4.501  1.00  0.00    +0.026 HD
ATOM    141  H   UNK A   1      -4.425  16.344  -3.059  1.00  0.00    +0.026 HD
ATOM    142  H   UNK A   1      -4.779  17.823  -4.727  1.00  0.00    +0.065 HD
ATOM    143  H   UNK A   1      -4.778  19.197  -2.729  1.00  0.00    +0.026 HD
ATOM    144  H   UNK A   1      -5.838  19.974  -3.910  1.00  0.00    +0.026 HD
ATOM    145  H   UNK A   1      -4.225  20.628  -3.628  1.00  0.00    +0.026 HD
ATOM    146  H   UNK A   1      -7.128  19.398  -5.727  1.00  0.00    +0.066 HD
ATOM    147  H   UNK A   1      -7.434  19.194  -8.797  1.00  0.00    +0.032 HD
ATOM    148  H   UNK A   1      -9.274  20.436  -6.697  1.00  0.00    +0.023 HD
ATOM    149  H   UNK A   1      -9.432  20.673  -8.450  1.00  0.00    +0.023 HD
ATOM    150  H   UNK A   1      -9.632  19.067  -7.771  1.00  0.00    +0.023 HD
ATOM    151  H   UNK A   1      -6.806  21.627  -7.051  1.00  0.00    +0.023 HD
ATOM    152  H   UNK A   1      -7.391  21.735  -8.720  1.00  0.00    +0.023 HD
ATOM    153  H   UNK A   1      -5.846  20.970  -8.397  1.00  0.00    +0.023 HD
ATOM    154  H   UNK A   1      -8.845  15.323  -5.786  1.00  0.00    +0.067 HD
ATOM    155  H   UNK A   1     -10.559  15.656  -3.510  1.00  0.00    +0.041 HD
ATOM    156  H   UNK A   1      -9.197  16.755  -3.197  1.00  0.00    +0.041 HD
ATOM    157  H   UNK A   1     -12.471  17.003  -7.730  1.00  0.00    +0.064 HD
ATOM    158  H   UNK A   1     -13.603  16.908  -6.355  1.00  0.00    +0.064 HD
ATOM    159  H   UNK A   1     -11.375  18.930  -5.869  1.00  0.00    +0.296 HD
ATOM    160  H   UNK A   1     -13.174  11.817  -2.634  1.00  0.00    +0.063 HD
ATOM    161  H   UNK A   1     -14.170  12.123  -0.468  1.00  0.00    +0.063 HD
ATOM    162  H   UNK A   1     -12.931  14.333   2.187  1.00  0.00    +0.043 HD
ATOM    163  H   UNK A   1     -12.536  12.609   2.456  1.00  0.00    +0.043 HD
ATOM    164  H   UNK A   1     -10.635  14.200   0.858  1.00  0.00    +0.063 HD
ATOM    165  H   UNK A   1      -8.976  15.003  -0.819  1.00  0.00    +0.058 HD
ATOM    166  H   UNK A   1     -11.423  11.618  -3.981  1.00  0.00    +0.028 HD
ATOM    167  H   UNK A   1     -10.744  13.210  -4.228  1.00  0.00    +0.028 HD
ATOM    168  H   UNK A   1      -9.779  11.898  -3.437  1.00  0.00    +0.028 HD
ENDROOT
TORSDOF 0
ENDMDL
