REMARK  Generated by RDKit with Gasteiger charges
REMARK  --------------------------------------------------
ROOT
ATOM      1  N   UNK A   1      -7.394   9.635  -2.116  1.00  0.00    -0.131 N 
ATOM      2  C   UNK A   1      -6.841   8.330  -1.678  1.00  0.00    +0.121 C 
ATOM      3  C   UNK A   1      -5.333   8.395  -1.906  1.00  0.00    -0.037 C 
ATOM      4  C   UNK A   1      -7.149   8.141  -0.181  1.00  0.00    +0.262 C 
ATOM      5  O   UNK A   1      -7.214   9.143   0.552  1.00  0.00    -0.271 OA
ATOM      6  N   UNK A   1      -7.280   6.891   0.294  1.00  0.00    -0.236 N 
ATOM      7  C   UNK A   1      -7.075   5.680  -0.566  1.00  0.00    +0.143 C 
ATOM      8  C   UNK A   1      -6.605   4.438   0.255  1.00  0.00    +0.025 C 
ATOM      9  S   UNK A   1      -4.870   4.440   0.973  1.00  0.00    -0.154 S 
ATOM     10  C   UNK A   1      -8.285   5.300  -1.507  1.00  0.00    +0.267 C 
ATOM     11  O   UNK A   1      -8.079   5.306  -2.729  1.00  0.00    -0.270 OA
ATOM     12  N   UNK A   1      -9.507   5.140  -0.967  1.00  0.00    -0.233 N 
ATOM     13  C   UNK A   1      -9.812   3.816  -0.299  1.00  0.00    +0.160 C 
ATOM     14  C   UNK A   1     -10.205   4.160   1.186  1.00  0.00    +0.083 C 
ATOM     15  C   UNK A   1     -11.575   4.806   1.379  1.00  0.00    -0.036 C 
ATOM     16  O   UNK A   1     -10.137   3.049   2.094  1.00  0.00    -0.391 OA
ATOM     17  C   UNK A   1     -10.975   3.012  -1.017  1.00  0.00    +0.269 C 
ATOM     18  O   UNK A   1     -12.083   3.524  -1.230  1.00  0.00    -0.270 OA
ATOM     19  N   UNK A   1     -10.662   1.755  -1.425  1.00  0.00    -0.236 N 
ATOM     20  C   UNK A   1     -10.558   0.681  -0.367  1.00  0.00    +0.136 C 
ATOM     21  C   UNK A   1     -11.903   0.528   0.412  1.00  0.00    -0.015 C 
ATOM     22  C   UNK A   1     -13.032  -0.071  -0.431  1.00  0.00    -0.060 C 
ATOM     23  C   UNK A   1     -11.742  -0.272   1.709  1.00  0.00    -0.060 C 
ATOM     24  C   UNK A   1     -10.089  -0.714  -0.969  1.00  0.00    +0.267 C 
ATOM     25  O   UNK A   1     -10.464  -1.118  -2.077  1.00  0.00    -0.270 OA
ATOM     26  N   UNK A   1      -9.314  -1.405  -0.095  1.00  0.00    -0.236 N 
ATOM     27  C   UNK A   1      -8.304  -2.365  -0.690  1.00  0.00    +0.134 C 
ATOM     28  C   UNK A   1      -7.279  -1.556  -1.538  1.00  0.00    -0.020 C 
ATOM     29  C   UNK A   1      -6.676  -2.273  -2.760  1.00  0.00    -0.033 C 
ATOM     30  C   UNK A   1      -7.602  -3.222  -3.517  1.00  0.00    +0.018 C 
ATOM     31  N   UNK A   1      -8.801  -2.531  -4.022  1.00  0.00    -0.357 N 
ATOM     32  C   UNK A   1      -9.864  -3.246  -4.464  1.00  0.00    +0.185 C 
ATOM     33  N   UNK A   1      -9.809  -4.043  -5.483  1.00  0.00    -0.270 N 
ATOM     34  N   UNK A   1     -10.985  -3.025  -3.738  1.00  0.00    -0.370 N 
ATOM     35  C   UNK A   1      -7.553  -3.264   0.404  1.00  0.00    +0.266 C 
ATOM     36  O   UNK A   1      -7.961  -3.353   1.566  1.00  0.00    -0.270 OA
ATOM     37  N   UNK A   1      -6.557  -4.008  -0.152  1.00  0.00    -0.236 N 
ATOM     38  C   UNK A   1      -5.475  -4.543   0.776  1.00  0.00    +0.137 C 
ATOM     39  C   UNK A   1      -5.753  -6.058   1.126  1.00  0.00    -0.013 C 
ATOM     40  C   UNK A   1      -4.685  -6.614   2.085  1.00  0.00    -0.060 C 
ATOM     41  C   UNK A   1      -7.167  -6.294   1.716  1.00  0.00    -0.051 C 
ATOM     42  C   UNK A   1      -7.494  -7.751   2.029  1.00  0.00    -0.065 C 
ATOM     43  C   UNK A   1      -4.037  -4.467   0.037  1.00  0.00    +0.267 C 
ATOM     44  O   UNK A   1      -3.919  -4.807  -1.147  1.00  0.00    -0.270 OA
ATOM     45  N   UNK A   1      -3.022  -4.140   0.891  1.00  0.00    -0.235 N 
ATOM     46  C   UNK A   1      -1.706  -3.697   0.239  1.00  0.00    +0.143 C 
ATOM     47  C   UNK A   1      -1.816  -2.174  -0.130  1.00  0.00    +0.026 C 
ATOM     48  S   UNK A   1      -0.761  -1.726  -1.586  1.00  0.00    -0.142 S 
ATOM     49  C   UNK A   1      -0.402  -4.070   1.138  1.00  0.00    +0.267 C 
ATOM     50  O   UNK A   1      -0.295  -5.162   1.709  1.00  0.00    -0.270 OA
ATOM     51  N   UNK A   1       0.552  -3.108   1.095  1.00  0.00    -0.234 N 
ATOM     52  C   UNK A   1       1.998  -3.451   1.380  1.00  0.00    +0.157 C 
ATOM     53  C   UNK A   1       2.577  -4.329   0.245  1.00  0.00    +0.075 C 
ATOM     54  O   UNK A   1       2.023  -4.017  -1.041  1.00  0.00    -0.394 OA
ATOM     55  C   UNK A   1       2.847  -2.129   1.738  1.00  0.00    +0.269 C 
ATOM     56  O   UNK A   1       2.422  -1.349   2.601  1.00  0.00    -0.270 OA
ATOM     57  N   UNK A   1       4.101  -2.046   1.223  1.00  0.00    -0.236 N 
ATOM     58  C   UNK A   1       4.357  -1.000   0.152  1.00  0.00    +0.135 C 
ATOM     59  C   UNK A   1       3.317   0.193   0.085  1.00  0.00    -0.014 C 
ATOM     60  C   UNK A   1       2.054  -0.187  -0.737  1.00  0.00    -0.022 C 
ATOM     61  S   UNK A   1       0.557   0.816  -0.521  1.00  0.00    -0.241 S 
ATOM     62  C   UNK A   1       0.087   0.621   1.173  1.00  0.00    -0.036 C 
ATOM     63  C   UNK A   1       5.892  -0.529  -0.148  1.00  0.00    +0.266 C 
ATOM     64  O   UNK A   1       6.192  -0.327  -1.336  1.00  0.00    -0.270 OA
ATOM     65  N   UNK A   1       6.716  -0.303   0.907  1.00  0.00    -0.236 N 
ATOM     66  C   UNK A   1       8.222  -0.664   0.809  1.00  0.00    +0.138 C 
ATOM     67  C   UNK A   1       8.537  -1.879  -0.107  1.00  0.00    +0.004 C 
ATOM     68  C   UNK A   1       8.582  -3.215   0.621  1.00  0.00    -0.045 C 
ATOM     69  C   UNK A   1       7.402  -3.925   0.861  1.00  0.00    -0.059 C 
ATOM     70  C   UNK A   1       7.432  -5.144   1.537  1.00  0.00    -0.062 C 
ATOM     71  C   UNK A   1       8.646  -5.663   1.986  1.00  0.00    -0.062 C 
ATOM     72  C   UNK A   1       9.827  -4.953   1.770  1.00  0.00    -0.062 C 
ATOM     73  C   UNK A   1       9.794  -3.729   1.098  1.00  0.00    -0.059 C 
ATOM     74  C   UNK A   1       9.352   0.459   0.587  1.00  0.00    +0.267 C 
ATOM     75  O   UNK A   1       9.139   1.511  -0.022  1.00  0.00    -0.270 OA
ATOM     76  N   UNK A   1      10.561   0.088   1.131  1.00  0.00    -0.236 N 
ATOM     77  C   UNK A   1      11.740   1.035   0.942  1.00  0.00    +0.138 C 
ATOM     78  C   UNK A   1      11.516   2.349   1.751  1.00  0.00    +0.004 C 
ATOM     79  C   UNK A   1      12.359   3.532   1.290  1.00  0.00    -0.045 C 
ATOM     80  C   UNK A   1      11.869   4.429   0.329  1.00  0.00    -0.055 C 
ATOM     81  C   UNK A   1      12.679   5.457  -0.160  1.00  0.00    -0.020 C 
ATOM     82  C   UNK A   1      13.998   5.549   0.276  1.00  0.00    +0.115 C 
ATOM     83  O   UNK A   1      14.835   6.464  -0.305  1.00  0.00    -0.508 OA
ATOM     84  C   UNK A   1      14.499   4.678   1.235  1.00  0.00    -0.020 C 
ATOM     85  C   UNK A   1      13.669   3.689   1.760  1.00  0.00    -0.055 C 
ATOM     86  C   UNK A   1      13.109   0.387   1.474  1.00  0.00    +0.267 C 
ATOM     87  O   UNK A   1      13.166  -0.247   2.533  1.00  0.00    -0.270 OA
ATOM     88  N   UNK A   1      14.192   0.715   0.709  1.00  0.00    -0.235 N 
ATOM     89  C   UNK A   1      15.521   0.444   1.354  1.00  0.00    +0.143 C 
ATOM     90  C   UNK A   1      15.901  -1.041   1.162  1.00  0.00    +0.022 C 
ATOM     91  S   UNK A   1      17.395  -1.557   2.118  1.00  0.00    -0.177 S 
ATOM     92  C   UNK A   1      16.643   1.330   0.712  1.00  0.00    +0.267 C 
ATOM     93  O   UNK A   1      16.836   1.457  -0.498  1.00  0.00    -0.270 OA
ATOM     94  N   UNK A   1      17.432   1.915   1.638  1.00  0.00    -0.238 N 
ATOM     95  C   UNK A   1      18.822   2.115   1.214  1.00  0.00    +0.140 C 
ATOM     96  C   UNK A   1      19.091   3.385   0.440  1.00  0.00    +0.325 C 
ATOM     97  O   UNK A   1      20.151   4.008   0.518  1.00  0.00    -0.250 OA
ATOM     98  O   UNK A   1      18.122   3.741  -0.431  1.00  0.00    -0.480 OA
ATOM     99  C   UNK A   1      -4.368   1.141  -2.570  1.00  0.00    -0.059 C 
ATOM    100  C   UNK A   1      -4.582   2.317  -1.870  1.00  0.00    -0.058 C 
ATOM    101  C   UNK A   1      -3.580   2.841  -1.060  1.00  0.00    -0.038 C 
ATOM    102  C   UNK A   1      -3.795   4.230  -0.482  1.00  0.00    +0.019 C 
ATOM    103  C   UNK A   1      -2.359   2.103  -0.929  1.00  0.00    -0.053 C 
ATOM    104  C   UNK A   1      -2.102   0.879  -1.625  1.00  0.00    -0.023 C 
ATOM    105  C   UNK A   1      -0.744   0.104  -1.556  1.00  0.00    +0.058 C 
ATOM    106  C   UNK A   1      -3.139   0.452  -2.513  1.00  0.00    -0.046 C 
ATOM    107  C   UNK A   1      -3.052  -0.746  -3.425  1.00  0.00    -0.039 C 
ATOM    108  H   UNK A   1      -7.307   7.580  -2.312  1.00  0.00    +0.060 HD
ATOM    109  H   UNK A   1      -4.876   9.207  -1.328  1.00  0.00    +0.025 HD
ATOM    110  H   UNK A   1      -5.098   8.564  -2.964  1.00  0.00    +0.025 HD
ATOM    111  H   UNK A   1      -4.834   7.470  -1.599  1.00  0.00    +0.025 HD
ATOM    112  H   UNK A   1      -6.248   5.846  -1.265  1.00  0.00    +0.067 HD
ATOM    113  H   UNK A   1      -6.709   3.521  -0.327  1.00  0.00    +0.041 HD
ATOM    114  H   UNK A   1      -7.252   4.321   1.130  1.00  0.00    +0.041 HD
ATOM    115  H   UNK A   1      -8.934   3.161  -0.281  1.00  0.00    +0.069 HD
ATOM    116  H   UNK A   1      -9.465   4.873   1.572  1.00  0.00    +0.063 HD
ATOM    117  H   UNK A   1     -11.727   5.663   0.718  1.00  0.00    +0.026 HD
ATOM    118  H   UNK A   1     -12.385   4.086   1.233  1.00  0.00    +0.026 HD
ATOM    119  H   UNK A   1     -11.673   5.157   2.413  1.00  0.00    +0.026 HD
ATOM    120  H   UNK A   1      -9.624   2.380   1.598  1.00  0.00    +0.211 HD
ATOM    121  H   UNK A   1      -9.766   0.967   0.332  1.00  0.00    +0.066 HD
ATOM    122  H   UNK A   1     -12.236   1.526   0.724  1.00  0.00    +0.032 HD
ATOM    123  H   UNK A   1     -13.978  -0.049   0.122  1.00  0.00    +0.023 HD
ATOM    124  H   UNK A   1     -12.833  -1.114  -0.698  1.00  0.00    +0.023 HD
ATOM    125  H   UNK A   1     -13.187   0.495  -1.354  1.00  0.00    +0.023 HD
ATOM    126  H   UNK A   1     -12.655  -0.206   2.312  1.00  0.00    +0.023 HD
ATOM    127  H   UNK A   1     -11.563  -1.334   1.514  1.00  0.00    +0.023 HD
ATOM    128  H   UNK A   1     -10.915   0.117   2.311  1.00  0.00    +0.023 HD
ATOM    129  H   UNK A   1      -8.861  -3.085  -1.297  1.00  0.00    +0.066 HD
ATOM    130  H   UNK A   1      -7.733  -0.631  -1.921  1.00  0.00    +0.029 HD
ATOM    131  H   UNK A   1      -6.455  -1.214  -0.897  1.00  0.00    +0.029 HD
ATOM    132  H   UNK A   1      -6.315  -1.502  -3.454  1.00  0.00    +0.029 HD
ATOM    133  H   UNK A   1      -5.785  -2.832  -2.453  1.00  0.00    +0.029 HD
ATOM    134  H   UNK A   1      -7.053  -3.628  -4.373  1.00  0.00    +0.049 HD
ATOM    135  H   UNK A   1      -7.884  -4.079  -2.898  1.00  0.00    +0.049 HD
ATOM    136  H   UNK A   1      -9.082  -1.862  -3.280  1.00  0.00    +0.163 HD
ATOM    137  H   UNK A   1      -8.830  -3.944  -5.774  1.00  0.00    +0.191 HD
ATOM    138  H   UNK A   1     -11.040  -2.010  -3.533  1.00  0.00    +0.159 HD
ATOM    139  H   UNK A   1     -10.746  -3.242  -2.761  1.00  0.00    +0.159 HD
ATOM    140  H   UNK A   1      -5.414  -3.950   1.699  1.00  0.00    +0.066 HD
ATOM    141  H   UNK A   1      -5.684  -6.638   0.195  1.00  0.00    +0.033 HD
ATOM    142  H   UNK A   1      -3.686  -6.585   1.641  1.00  0.00    +0.023 HD
ATOM    143  H   UNK A   1      -4.864  -7.666   2.325  1.00  0.00    +0.023 HD
ATOM    144  H   UNK A   1      -4.664  -6.048   3.022  1.00  0.00    +0.023 HD
ATOM    145  H   UNK A   1      -7.294  -5.700   2.629  1.00  0.00    +0.027 HD
ATOM    146  H   UNK A   1      -7.922  -5.958   0.997  1.00  0.00    +0.027 HD
ATOM    147  H   UNK A   1      -6.926  -8.117   2.889  1.00  0.00    +0.023 HD
ATOM    148  H   UNK A   1      -7.291  -8.396   1.167  1.00  0.00    +0.023 HD
ATOM    149  H   UNK A   1      -8.556  -7.847   2.281  1.00  0.00    +0.023 HD
ATOM    150  H   UNK A   1      -1.544  -4.273  -0.684  1.00  0.00    +0.067 HD
ATOM    151  H   UNK A   1      -1.562  -1.550   0.730  1.00  0.00    +0.041 HD
ATOM    152  H   UNK A   1      -2.843  -1.928  -0.414  1.00  0.00    +0.041 HD
ATOM    153  H   UNK A   1       2.082  -4.039   2.307  1.00  0.00    +0.068 HD
ATOM    154  H   UNK A   1       3.666  -4.298   0.170  1.00  0.00    +0.059 HD
ATOM    155  H   UNK A   1       2.307  -5.374   0.439  1.00  0.00    +0.059 HD
ATOM    156  H   UNK A   1       1.251  -3.457  -0.766  1.00  0.00    +0.210 HD
ATOM    157  H   UNK A   1       4.169  -1.563  -0.782  1.00  0.00    +0.066 HD
ATOM    158  H   UNK A   1       3.784   1.054  -0.407  1.00  0.00    +0.030 HD
ATOM    159  H   UNK A   1       3.050   0.534   1.089  1.00  0.00    +0.030 HD
ATOM    160  H   UNK A   1       1.764  -1.208  -0.509  1.00  0.00    +0.036 HD
ATOM    161  H   UNK A   1       2.291  -0.139  -1.806  1.00  0.00    +0.036 HD
ATOM    162  H   UNK A   1       0.798   2.107  -0.836  1.00  0.00    +0.084 HD
ATOM    163  H   UNK A   1      -0.979   0.809   1.281  1.00  0.00    +0.033 HD
ATOM    164  H   UNK A   1       0.320  -0.386   1.505  1.00  0.00    +0.033 HD
ATOM    165  H   UNK A   1       0.648   1.352   1.763  1.00  0.00    +0.033 HD
ATOM    166  H   UNK A   1       8.440  -0.988   1.843  1.00  0.00    +0.066 HD
ATOM    167  H   UNK A   1       7.840  -1.987  -0.943  1.00  0.00    +0.034 HD
ATOM    168  H   UNK A   1       9.508  -1.746  -0.603  1.00  0.00    +0.034 HD
ATOM    169  H   UNK A   1       6.447  -3.484   0.558  1.00  0.00    +0.063 HD
ATOM    170  H   UNK A   1       6.487  -5.642   1.735  1.00  0.00    +0.062 HD
ATOM    171  H   UNK A   1       8.657  -6.595   2.536  1.00  0.00    +0.062 HD
ATOM    172  H   UNK A   1      10.774  -5.316   2.151  1.00  0.00    +0.062 HD
ATOM    173  H   UNK A   1      10.697  -3.131   0.973  1.00  0.00    +0.063 HD
ATOM    174  H   UNK A   1      11.863   1.254  -0.129  1.00  0.00    +0.066 HD
ATOM    175  H   UNK A   1      10.469   2.668   1.725  1.00  0.00    +0.034 HD
ATOM    176  H   UNK A   1      11.723   2.174   2.817  1.00  0.00    +0.034 HD
ATOM    177  H   UNK A   1      10.865   4.270  -0.065  1.00  0.00    +0.063 HD
ATOM    178  H   UNK A   1      12.297   6.121  -0.924  1.00  0.00    +0.066 HD
ATOM    179  H   UNK A   1      15.685   5.984  -0.341  1.00  0.00    +0.293 HD
ATOM    180  H   UNK A   1      15.537   4.696   1.551  1.00  0.00    +0.066 HD
ATOM    181  H   UNK A   1      14.071   2.956   2.458  1.00  0.00    +0.063 HD
ATOM    182  H   UNK A   1      15.479   0.679   2.428  1.00  0.00    +0.067 HD
ATOM    183  H   UNK A   1      16.115  -1.247   0.107  1.00  0.00    +0.041 HD
ATOM    184  H   UNK A   1      15.088  -1.711   1.461  1.00  0.00    +0.041 HD
ATOM    185  H   UNK A   1      17.811  -0.291   2.307  1.00  0.00    +0.102 HD
ATOM    186  H   UNK A   1      19.223   1.277   0.627  1.00  0.00    +0.064 HD
ATOM    187  H   UNK A   1      19.450   2.174   2.113  1.00  0.00    +0.064 HD
ATOM    188  H   UNK A   1      17.418   3.028  -0.364  1.00  0.00    +0.296 HD
ATOM    189  H   UNK A   1      -5.186   0.758  -3.177  1.00  0.00    +0.063 HD
ATOM    190  H   UNK A   1      -5.537   2.824  -1.992  1.00  0.00    +0.063 HD
ATOM    191  H   UNK A   1      -4.126   4.906  -1.277  1.00  0.00    +0.043 HD
ATOM    192  H   UNK A   1      -2.813   4.616  -0.181  1.00  0.00    +0.043 HD
ATOM    193  H   UNK A   1      -1.584   2.515  -0.285  1.00  0.00    +0.063 HD
ATOM    194  H   UNK A   1      -0.315   0.336  -2.543  1.00  0.00    +0.057 HD
ATOM    195  H   UNK A   1      -2.070  -0.814  -3.903  1.00  0.00    +0.028 HD
ATOM    196  H   UNK A   1      -3.762  -0.658  -4.256  1.00  0.00    +0.028 HD
ATOM    197  H   UNK A   1      -3.303  -1.666  -2.890  1.00  0.00    +0.028 HD
ENDROOT
TORSDOF 0