REMARK  Generated by RDKit with Gasteiger charges
REMARK  --------------------------------------------------
ROOT
ATOM      1  N   UNK A   1      -6.771   6.263  -6.096  1.00  0.00    -0.131 N 
ATOM      2  C   UNK A   1      -6.587   5.853  -4.687  1.00  0.00    +0.121 C 
ATOM      3  C   UNK A   1      -5.762   6.939  -3.996  1.00  0.00    -0.037 C 
ATOM      4  C   UNK A   1      -7.975   5.754  -4.017  1.00  0.00    +0.262 C 
ATOM      5  O   UNK A   1      -8.887   6.516  -4.373  1.00  0.00    -0.271 OA
ATOM      6  N   UNK A   1      -8.026   4.959  -2.935  1.00  0.00    -0.236 N 
ATOM      7  C   UNK A   1      -7.608   3.512  -3.100  1.00  0.00    +0.143 C 
ATOM      8  C   UNK A   1      -6.496   3.077  -2.065  1.00  0.00    +0.025 C 
ATOM      9  S   UNK A   1      -4.753   3.785  -2.302  1.00  0.00    -0.154 S 
ATOM     10  C   UNK A   1      -8.937   2.608  -3.019  1.00  0.00    +0.267 C 
ATOM     11  O   UNK A   1      -9.854   2.782  -3.833  1.00  0.00    -0.270 OA
ATOM     12  N   UNK A   1      -8.918   1.719  -2.010  1.00  0.00    -0.236 N 
ATOM     13  C   UNK A   1      -9.769   0.474  -2.128  1.00  0.00    +0.136 C 
ATOM     14  C   UNK A   1      -9.363  -0.382  -3.378  1.00  0.00    -0.015 C 
ATOM     15  C   UNK A   1      -7.914  -0.871  -3.388  1.00  0.00    -0.060 C 
ATOM     16  C   UNK A   1     -10.328  -1.538  -3.663  1.00  0.00    -0.060 C 
ATOM     17  C   UNK A   1      -9.850  -0.232  -0.691  1.00  0.00    +0.267 C 
ATOM     18  O   UNK A   1     -10.335   0.395   0.261  1.00  0.00    -0.270 OA
ATOM     19  N   UNK A   1      -9.512  -1.545  -0.675  1.00  0.00    -0.236 N 
ATOM     20  C   UNK A   1      -8.907  -2.053   0.626  1.00  0.00    +0.136 C 
ATOM     21  C   UNK A   1     -10.035  -2.360   1.664  1.00  0.00    -0.015 C 
ATOM     22  C   UNK A   1      -9.520  -2.291   3.104  1.00  0.00    -0.060 C 
ATOM     23  C   UNK A   1     -10.754  -3.690   1.420  1.00  0.00    -0.060 C 
ATOM     24  C   UNK A   1      -7.950  -3.326   0.419  1.00  0.00    +0.267 C 
ATOM     25  O   UNK A   1      -8.163  -4.148  -0.483  1.00  0.00    -0.270 OA
ATOM     26  N   UNK A   1      -7.065  -3.499   1.445  1.00  0.00    -0.236 N 
ATOM     27  C   UNK A   1      -5.590  -3.458   1.053  1.00  0.00    +0.137 C 
ATOM     28  C   UNK A   1      -4.905  -2.078   1.439  1.00  0.00    -0.013 C 
ATOM     29  C   UNK A   1      -5.735  -1.075   2.259  1.00  0.00    -0.060 C 
ATOM     30  C   UNK A   1      -4.245  -1.381   0.220  1.00  0.00    -0.051 C 
ATOM     31  C   UNK A   1      -5.206  -0.948  -0.880  1.00  0.00    -0.065 C 
ATOM     32  C   UNK A   1      -4.662  -4.607   1.685  1.00  0.00    +0.267 C 
ATOM     33  O   UNK A   1      -5.047  -5.408   2.548  1.00  0.00    -0.270 OA
ATOM     34  N   UNK A   1      -3.451  -4.652   1.072  1.00  0.00    -0.236 N 
ATOM     35  C   UNK A   1      -2.204  -4.611   1.959  1.00  0.00    +0.138 C 
ATOM     36  C   UNK A   1      -1.849  -6.048   2.414  1.00  0.00    +0.004 C 
ATOM     37  C   UNK A   1      -1.566  -6.203   3.905  1.00  0.00    -0.045 C 
ATOM     38  C   UNK A   1      -2.591  -6.601   4.775  1.00  0.00    -0.059 C 
ATOM     39  C   UNK A   1      -2.330  -6.761   6.139  1.00  0.00    -0.062 C 
ATOM     40  C   UNK A   1      -1.048  -6.518   6.637  1.00  0.00    -0.062 C 
ATOM     41  C   UNK A   1      -0.034  -6.090   5.775  1.00  0.00    -0.062 C 
ATOM     42  C   UNK A   1      -0.291  -5.929   4.412  1.00  0.00    -0.059 C 
ATOM     43  C   UNK A   1      -0.926  -4.076   1.136  1.00  0.00    +0.267 C 
ATOM     44  O   UNK A   1      -0.774  -4.410  -0.049  1.00  0.00    -0.270 OA
ATOM     45  N   UNK A   1      -0.047  -3.372   1.911  1.00  0.00    -0.235 N 
ATOM     46  C   UNK A   1       1.174  -2.807   1.193  1.00  0.00    +0.143 C 
ATOM     47  C   UNK A   1       1.553  -1.330   1.586  1.00  0.00    +0.027 C 
ATOM     48  S   UNK A   1       0.322   0.093   1.423  1.00  0.00    -0.140 S 
ATOM     49  C   UNK A   1       2.484  -3.723   1.294  1.00  0.00    +0.267 C 
ATOM     50  O   UNK A   1       2.833  -4.372   0.297  1.00  0.00    -0.270 OA
ATOM     51  N   UNK A   1       3.147  -3.763   2.478  1.00  0.00    -0.239 N 
ATOM     52  C   UNK A   1       4.383  -2.910   2.545  1.00  0.00    +0.124 C 
ATOM     53  C   UNK A   1       5.824  -3.553   2.727  1.00  0.00    +0.263 C 
ATOM     54  O   UNK A   1       6.015  -4.667   3.223  1.00  0.00    -0.271 OA
ATOM     55  N   UNK A   1       6.777  -2.652   2.376  1.00  0.00    -0.236 N 
ATOM     56  C   UNK A   1       8.177  -3.124   2.146  1.00  0.00    +0.140 C 
ATOM     57  C   UNK A   1       8.465  -3.993   0.869  1.00  0.00    +0.023 C 
ATOM     58  C   UNK A   1       7.337  -4.392  -0.031  1.00  0.00    +0.061 C 
ATOM     59  C   UNK A   1       6.293  -3.595  -0.457  1.00  0.00    +0.024 C 
ATOM     60  N   UNK A   1       5.278  -4.487  -0.677  1.00  0.00    -0.351 N 
ATOM     61  C   UNK A   1       5.857  -5.721  -0.773  1.00  0.00    +0.092 C 
ATOM     62  N   UNK A   1       7.137  -5.709  -0.453  1.00  0.00    -0.242 N 
ATOM     63  C   UNK A   1       9.271  -1.976   2.149  1.00  0.00    +0.267 C 
ATOM     64  O   UNK A   1      10.385  -2.222   2.651  1.00  0.00    -0.270 OA
ATOM     65  N   UNK A   1       8.958  -0.875   1.427  1.00  0.00    -0.235 N 
ATOM     66  C   UNK A   1       9.796   0.325   1.675  1.00  0.00    +0.143 C 
ATOM     67  C   UNK A   1      11.032   0.344   0.742  1.00  0.00    +0.058 C 
ATOM     68  C   UNK A   1      10.810   0.457  -0.764  1.00  0.00    +0.220 C 
ATOM     69  O   UNK A   1      11.753   0.631  -1.557  1.00  0.00    -0.275 OA
ATOM     70  N   UNK A   1       9.538   0.349  -1.234  1.00  0.00    -0.370 N 
ATOM     71  C   UNK A   1       9.148   1.753   1.705  1.00  0.00    +0.267 C 
ATOM     72  O   UNK A   1       9.575   2.562   2.543  1.00  0.00    -0.270 OA
ATOM     73  N   UNK A   1       8.309   2.028   0.682  1.00  0.00    -0.236 N 
ATOM     74  C   UNK A   1       7.533   3.328   0.776  1.00  0.00    +0.138 C 
ATOM     75  C   UNK A   1       8.429   4.592   0.579  1.00  0.00    +0.004 C 
ATOM     76  C   UNK A   1       9.585   4.478  -0.407  1.00  0.00    -0.045 C 
ATOM     77  C   UNK A   1      10.867   4.155   0.065  1.00  0.00    -0.055 C 
ATOM     78  C   UNK A   1      11.868   3.777  -0.825  1.00  0.00    -0.020 C 
ATOM     79  C   UNK A   1      11.576   3.724  -2.188  1.00  0.00    +0.115 C 
ATOM     80  O   UNK A   1      12.445   3.029  -2.997  1.00  0.00    -0.508 OA
ATOM     81  C   UNK A   1      10.348   4.140  -2.693  1.00  0.00    -0.020 C 
ATOM     82  C   UNK A   1       9.349   4.524  -1.795  1.00  0.00    -0.055 C 
ATOM     83  C   UNK A   1       6.318   3.433  -0.241  1.00  0.00    +0.267 C 
ATOM     84  O   UNK A   1       6.432   3.102  -1.430  1.00  0.00    -0.270 OA
ATOM     85  N   UNK A   1       5.241   4.041   0.330  1.00  0.00    -0.235 N 
ATOM     86  C   UNK A   1       4.079   4.340  -0.585  1.00  0.00    +0.143 C 
ATOM     87  C   UNK A   1       2.995   3.195  -0.645  1.00  0.00    +0.027 C 
ATOM     88  S   UNK A   1       1.838   2.731   0.761  1.00  0.00    -0.140 S 
ATOM     89  C   UNK A   1       3.524   5.794  -0.344  1.00  0.00    +0.267 C 
ATOM     90  O   UNK A   1       2.382   6.081   0.011  1.00  0.00    -0.270 OA
ATOM     91  N   UNK A   1       4.384   6.761  -0.728  1.00  0.00    -0.238 N 
ATOM     92  C   UNK A   1       4.828   7.591   0.413  1.00  0.00    +0.140 C 
ATOM     93  C   UNK A   1       4.393   9.022   0.145  1.00  0.00    +0.325 C 
ATOM     94  O   UNK A   1       4.902  10.035   0.630  1.00  0.00    -0.250 OA
ATOM     95  O   UNK A   1       3.308   9.078  -0.673  1.00  0.00    -0.480 OA
ATOM     96  C   UNK A   1      -0.939   1.343  -3.289  1.00  0.00    -0.059 C 
ATOM     97  C   UNK A   1      -2.168   1.887  -2.893  1.00  0.00    -0.058 C 
ATOM     98  C   UNK A   1      -2.387   2.282  -1.574  1.00  0.00    -0.038 C 
ATOM     99  C   UNK A   1      -3.773   2.740  -1.101  1.00  0.00    +0.019 C 
ATOM    100  C   UNK A   1      -1.323   2.087  -0.645  1.00  0.00    -0.053 C 
ATOM    101  C   UNK A   1      -0.069   1.491  -1.011  1.00  0.00    -0.022 C 
ATOM    102  C   UNK A   1       1.033   1.167   0.053  1.00  0.00    +0.076 C 
ATOM    103  C   UNK A   1       0.108   1.127  -2.369  1.00  0.00    -0.046 C 
ATOM    104  C   UNK A   1       1.369   0.467  -2.858  1.00  0.00    -0.039 C 
ATOM    105  H   UNK A   1      -6.050   4.903  -4.699  1.00  0.00    +0.060 HD
ATOM    106  H   UNK A   1      -5.680   6.744  -2.922  1.00  0.00    +0.025 HD
ATOM    107  H   UNK A   1      -6.227   7.921  -4.118  1.00  0.00    +0.025 HD
ATOM    108  H   UNK A   1      -4.753   6.998  -4.410  1.00  0.00    +0.025 HD
ATOM    109  H   UNK A   1      -7.210   3.278  -4.099  1.00  0.00    +0.067 HD
ATOM    110  H   UNK A   1      -6.794   3.333  -1.042  1.00  0.00    +0.041 HD
ATOM    111  H   UNK A   1      -6.335   2.003  -2.158  1.00  0.00    +0.041 HD
ATOM    112  H   UNK A   1     -10.814   0.776  -2.307  1.00  0.00    +0.066 HD
ATOM    113  H   UNK A   1      -9.455   0.276  -4.255  1.00  0.00    +0.032 HD
ATOM    114  H   UNK A   1      -7.218  -0.060  -3.154  1.00  0.00    +0.023 HD
ATOM    115  H   UNK A   1      -7.735  -1.689  -2.683  1.00  0.00    +0.023 HD
ATOM    116  H   UNK A   1      -7.653  -1.247  -4.386  1.00  0.00    +0.023 HD
ATOM    117  H   UNK A   1     -10.244  -2.349  -2.934  1.00  0.00    +0.023 HD
ATOM    118  H   UNK A   1     -11.370  -1.191  -3.635  1.00  0.00    +0.023 HD
ATOM    119  H   UNK A   1     -10.141  -1.957  -4.660  1.00  0.00    +0.023 HD
ATOM    120  H   UNK A   1      -8.266  -1.255   1.019  1.00  0.00    +0.066 HD
ATOM    121  H   UNK A   1     -10.805  -1.579   1.599  1.00  0.00    +0.032 HD
ATOM    122  H   UNK A   1      -8.962  -1.363   3.267  1.00  0.00    +0.023 HD
ATOM    123  H   UNK A   1     -10.360  -2.301   3.811  1.00  0.00    +0.023 HD
ATOM    124  H   UNK A   1      -8.874  -3.134   3.356  1.00  0.00    +0.023 HD
ATOM    125  H   UNK A   1     -11.183  -3.727   0.411  1.00  0.00    +0.023 HD
ATOM    126  H   UNK A   1     -11.579  -3.822   2.130  1.00  0.00    +0.023 HD
ATOM    127  H   UNK A   1     -10.084  -4.549   1.542  1.00  0.00    +0.023 HD
ATOM    128  H   UNK A   1      -5.514  -3.629  -0.028  1.00  0.00    +0.066 HD
ATOM    129  H   UNK A   1      -4.076  -2.311   2.119  1.00  0.00    +0.033 HD
ATOM    130  H   UNK A   1      -5.082  -0.322   2.716  1.00  0.00    +0.023 HD
ATOM    131  H   UNK A   1      -6.456  -0.533   1.650  1.00  0.00    +0.023 HD
ATOM    132  H   UNK A   1      -6.252  -1.579   3.086  1.00  0.00    +0.023 HD
ATOM    133  H   UNK A   1      -3.487  -2.042  -0.219  1.00  0.00    +0.027 HD
ATOM    134  H   UNK A   1      -3.699  -0.496   0.576  1.00  0.00    +0.027 HD
ATOM    135  H   UNK A   1      -5.750  -1.804  -1.288  1.00  0.00    +0.023 HD
ATOM    136  H   UNK A   1      -4.652  -0.495  -1.710  1.00  0.00    +0.023 HD
ATOM    137  H   UNK A   1      -5.938  -0.221  -0.516  1.00  0.00    +0.023 HD
ATOM    138  H   UNK A   1      -2.364  -3.944   2.816  1.00  0.00    +0.066 HD
ATOM    139  H   UNK A   1      -2.653  -6.752   2.159  1.00  0.00    +0.034 HD
ATOM    140  H   UNK A   1      -0.977  -6.435   1.867  1.00  0.00    +0.034 HD
ATOM    141  H   UNK A   1      -3.596  -6.715   4.382  1.00  0.00    +0.063 HD
ATOM    142  H   UNK A   1      -3.145  -7.014   6.803  1.00  0.00    +0.062 HD
ATOM    143  H   UNK A   1      -0.847  -6.604   7.698  1.00  0.00    +0.062 HD
ATOM    144  H   UNK A   1       0.955  -5.826   6.142  1.00  0.00    +0.062 HD
ATOM    145  H   UNK A   1       0.480  -5.544   3.739  1.00  0.00    +0.063 HD
ATOM    146  H   UNK A   1       0.975  -2.738   0.113  1.00  0.00    +0.067 HD
ATOM    147  H   UNK A   1       2.436  -1.036   1.006  1.00  0.00    +0.041 HD
ATOM    148  H   UNK A   1       1.850  -1.303   2.643  1.00  0.00    +0.041 HD
ATOM    149  H   UNK A   1       4.433  -2.223   1.689  1.00  0.00    +0.062 HD
ATOM    150  H   UNK A   1       4.272  -2.268   3.435  1.00  0.00    +0.062 HD
ATOM    151  H   UNK A   1       8.453  -3.748   3.019  1.00  0.00    +0.066 HD
ATOM    152  H   UNK A   1       8.891  -4.948   1.237  1.00  0.00    +0.036 HD
ATOM    153  H   UNK A   1       9.270  -3.558   0.260  1.00  0.00    +0.036 HD
ATOM    154  H   UNK A   1       6.093  -2.550  -0.259  1.00  0.00    +0.084 HD
ATOM    155  H   UNK A   1       4.286  -4.288  -0.522  1.00  0.00    +0.167 HD
ATOM    156  H   UNK A   1       5.251  -6.591  -0.972  1.00  0.00    +0.104 HD
ATOM    157  H   UNK A   1      10.211   0.255   2.693  1.00  0.00    +0.066 HD
ATOM    158  H   UNK A   1      11.624  -0.568   0.895  1.00  0.00    +0.039 HD
ATOM    159  H   UNK A   1      11.670   1.190   1.024  1.00  0.00    +0.039 HD
ATOM    160  H   UNK A   1       9.006  -0.305  -0.617  1.00  0.00    +0.159 HD
ATOM    161  H   UNK A   1       8.979   1.153  -0.870  1.00  0.00    +0.159 HD
ATOM    162  H   UNK A   1       7.083   3.404   1.781  1.00  0.00    +0.066 HD
ATOM    163  H   UNK A   1       7.820   5.465   0.304  1.00  0.00    +0.034 HD
ATOM    164  H   UNK A   1       8.852   4.856   1.558  1.00  0.00    +0.034 HD
ATOM    165  H   UNK A   1      11.018   4.023   1.138  1.00  0.00    +0.063 HD
ATOM    166  H   UNK A   1      12.794   3.367  -0.443  1.00  0.00    +0.066 HD
ATOM    167  H   UNK A   1      12.224   2.102  -2.698  1.00  0.00    +0.293 HD
ATOM    168  H   UNK A   1      10.101   4.032  -3.747  1.00  0.00    +0.066 HD
ATOM    169  H   UNK A   1       8.328   4.707  -2.148  1.00  0.00    +0.063 HD
ATOM    170  H   UNK A   1       4.426   4.401  -1.630  1.00  0.00    +0.067 HD
ATOM    171  H   UNK A   1       2.317   3.421  -1.484  1.00  0.00    +0.041 HD
ATOM    172  H   UNK A   1       3.503   2.258  -0.915  1.00  0.00    +0.041 HD
ATOM    173  H   UNK A   1       4.394   7.306   1.383  1.00  0.00    +0.064 HD
ATOM    174  H   UNK A   1       5.924   7.578   0.499  1.00  0.00    +0.064 HD
ATOM    175  H   UNK A   1       3.127   8.093  -0.836  1.00  0.00    +0.296 HD
ATOM    176  H   UNK A   1      -0.824   1.036  -4.326  1.00  0.00    +0.063 HD
ATOM    177  H   UNK A   1      -2.965   1.938  -3.623  1.00  0.00    +0.063 HD
ATOM    178  H   UNK A   1      -4.365   1.868  -0.804  1.00  0.00    +0.043 HD
ATOM    179  H   UNK A   1      -3.624   3.403  -0.237  1.00  0.00    +0.043 HD
ATOM    180  H   UNK A   1      -1.479   2.340   0.408  1.00  0.00    +0.063 HD
ATOM    181  H   UNK A   1       1.844   0.600  -0.404  1.00  0.00    +0.058 HD
ATOM    182  H   UNK A   1       1.334   0.286  -3.938  1.00  0.00    +0.028 HD
ATOM    183  H   UNK A   1       1.520  -0.493  -2.364  1.00  0.00    +0.028 HD
ATOM    184  H   UNK A   1       2.232   1.112  -2.684  1.00  0.00    +0.028 HD
ENDROOT
TORSDOF 0