REMARK  Generated by RDKit with Gasteiger charges
REMARK  --------------------------------------------------
ROOT
ATOM      1  N   UNK A   1       4.623   8.497  -2.746  1.00  0.00    -0.131 N 
ATOM      2  C   UNK A   1       5.842   7.664  -2.761  1.00  0.00    +0.121 C 
ATOM      3  C   UNK A   1       6.670   8.123  -3.963  1.00  0.00    -0.037 C 
ATOM      4  C   UNK A   1       6.601   7.917  -1.446  1.00  0.00    +0.262 C 
ATOM      5  O   UNK A   1       7.245   8.968  -1.302  1.00  0.00    -0.271 OA
ATOM      6  N   UNK A   1       6.361   7.056  -0.449  1.00  0.00    -0.236 N 
ATOM      7  C   UNK A   1       6.569   5.572  -0.601  1.00  0.00    +0.143 C 
ATOM      8  C   UNK A   1       5.256   4.733  -0.848  1.00  0.00    +0.025 C 
ATOM      9  S   UNK A   1       3.848   4.976   0.371  1.00  0.00    -0.154 S 
ATOM     10  C   UNK A   1       7.685   5.090  -1.598  1.00  0.00    +0.267 C 
ATOM     11  O   UNK A   1       7.773   5.515  -2.750  1.00  0.00    -0.270 OA
ATOM     12  N   UNK A   1       8.501   4.167  -1.043  1.00  0.00    -0.235 N 
ATOM     13  C   UNK A   1       9.068   3.162  -2.014  1.00  0.00    +0.143 C 
ATOM     14  C   UNK A   1      10.324   3.699  -2.746  1.00  0.00    +0.058 C 
ATOM     15  C   UNK A   1      11.473   4.241  -1.891  1.00  0.00    +0.220 C 
ATOM     16  O   UNK A   1      12.570   4.561  -2.365  1.00  0.00    -0.275 OA
ATOM     17  N   UNK A   1      11.215   4.387  -0.550  1.00  0.00    -0.370 N 
ATOM     18  C   UNK A   1       9.469   1.828  -1.292  1.00  0.00    +0.267 C 
ATOM     19  O   UNK A   1      10.267   1.838  -0.345  1.00  0.00    -0.270 OA
ATOM     20  N   UNK A   1       8.923   0.743  -1.872  1.00  0.00    -0.233 N 
ATOM     21  C   UNK A   1       8.780  -0.497  -1.017  1.00  0.00    +0.160 C 
ATOM     22  C   UNK A   1       8.027  -0.286   0.340  1.00  0.00    +0.083 C 
ATOM     23  C   UNK A   1       6.834   0.666   0.310  1.00  0.00    -0.036 C 
ATOM     24  O   UNK A   1       8.975   0.194   1.341  1.00  0.00    -0.391 OA
ATOM     25  C   UNK A   1       8.255  -1.764  -1.833  1.00  0.00    +0.269 C 
ATOM     26  O   UNK A   1       9.058  -2.419  -2.517  1.00  0.00    -0.270 OA
ATOM     27  N   UNK A   1       6.943  -2.038  -1.644  1.00  0.00    -0.236 N 
ATOM     28  C   UNK A   1       6.443  -3.403  -2.013  1.00  0.00    +0.138 C 
ATOM     29  C   UNK A   1       6.932  -4.583  -1.126  1.00  0.00    +0.006 C 
ATOM     30  C   UNK A   1       7.305  -4.348   0.319  1.00  0.00    -0.020 C 
ATOM     31  C   UNK A   1       8.528  -3.879   0.765  1.00  0.00    +0.005 C 
ATOM     32  N   UNK A   1       8.408  -3.587   2.092  1.00  0.00    -0.361 N 
ATOM     33  C   UNK A   1       7.226  -4.085   2.590  1.00  0.00    +0.046 C 
ATOM     34  C   UNK A   1       6.706  -4.061   3.892  1.00  0.00    -0.038 C 
ATOM     35  C   UNK A   1       5.388  -4.492   4.072  1.00  0.00    -0.060 C 
ATOM     36  C   UNK A   1       4.618  -4.905   2.987  1.00  0.00    -0.062 C 
ATOM     37  C   UNK A   1       5.160  -4.931   1.697  1.00  0.00    -0.053 C 
ATOM     38  C   UNK A   1       6.491  -4.524   1.485  1.00  0.00    +0.003 C 
ATOM     39  C   UNK A   1       4.892  -3.521  -2.370  1.00  0.00    +0.267 C 
ATOM     40  O   UNK A   1       4.587  -3.601  -3.572  1.00  0.00    -0.270 OA
ATOM     41  N   UNK A   1       4.041  -3.647  -1.320  1.00  0.00    -0.236 N 
ATOM     42  C   UNK A   1       2.546  -3.684  -1.652  1.00  0.00    +0.138 C 
ATOM     43  C   UNK A   1       2.138  -5.012  -2.353  1.00  0.00    +0.004 C 
ATOM     44  C   UNK A   1       2.247  -6.300  -1.552  1.00  0.00    -0.045 C 
ATOM     45  C   UNK A   1       1.166  -6.749  -0.782  1.00  0.00    -0.059 C 
ATOM     46  C   UNK A   1       1.266  -7.923  -0.034  1.00  0.00    -0.062 C 
ATOM     47  C   UNK A   1       2.452  -8.657  -0.040  1.00  0.00    -0.062 C 
ATOM     48  C   UNK A   1       3.541  -8.209  -0.789  1.00  0.00    -0.062 C 
ATOM     49  C   UNK A   1       3.436  -7.038  -1.542  1.00  0.00    -0.059 C 
ATOM     50  C   UNK A   1       1.534  -3.420  -0.438  1.00  0.00    +0.267 C 
ATOM     51  O   UNK A   1       1.872  -3.556   0.740  1.00  0.00    -0.270 OA
ATOM     52  N   UNK A   1       0.281  -3.111  -0.889  1.00  0.00    -0.235 N 
ATOM     53  C   UNK A   1      -0.759  -2.700   0.152  1.00  0.00    +0.143 C 
ATOM     54  C   UNK A   1      -0.862  -1.128   0.246  1.00  0.00    +0.027 C 
ATOM     55  S   UNK A   1      -1.613  -0.496   1.838  1.00  0.00    -0.140 S 
ATOM     56  C   UNK A   1      -2.144  -3.461  -0.139  1.00  0.00    +0.267 C 
ATOM     57  O   UNK A   1      -2.392  -4.533   0.427  1.00  0.00    -0.270 OA
ATOM     58  N   UNK A   1      -2.941  -2.839  -1.033  1.00  0.00    -0.236 N 
ATOM     59  C   UNK A   1      -4.242  -3.465  -1.432  1.00  0.00    +0.135 C 
ATOM     60  C   UNK A   1      -4.106  -4.914  -2.028  1.00  0.00    -0.013 C 
ATOM     61  C   UNK A   1      -2.876  -5.066  -2.943  1.00  0.00    -0.060 C 
ATOM     62  C   UNK A   1      -5.379  -5.290  -2.837  1.00  0.00    -0.051 C 
ATOM     63  C   UNK A   1      -5.460  -6.768  -3.199  1.00  0.00    -0.065 C 
ATOM     64  C   UNK A   1      -5.454  -3.352  -0.421  1.00  0.00    +0.248 C 
ATOM     65  O   UNK A   1      -6.040  -4.334   0.048  1.00  0.00    -0.272 OA
ATOM     66  N   UNK A   1      -5.901  -2.026  -0.235  1.00  0.00    -0.329 N 
ATOM     67  C   UNK A   1      -4.986  -1.295   0.649  1.00  0.00    +0.021 C 
ATOM     68  C   UNK A   1      -5.794  -0.903   1.895  1.00  0.00    -0.033 C 
ATOM     69  C   UNK A   1      -7.115  -1.650   1.747  1.00  0.00    -0.022 C 
ATOM     70  C   UNK A   1      -7.265  -1.664   0.231  1.00  0.00    +0.113 C 
ATOM     71  C   UNK A   1      -8.645  -2.207  -0.324  1.00  0.00    +0.264 C 
ATOM     72  O   UNK A   1      -8.742  -3.108  -1.161  1.00  0.00    -0.271 OA
ATOM     73  N   UNK A   1      -9.724  -1.586   0.216  1.00  0.00    -0.236 N 
ATOM     74  C   UNK A   1      -9.909  -0.182  -0.292  1.00  0.00    +0.134 C 
ATOM     75  C   UNK A   1     -11.217  -0.151  -1.130  1.00  0.00    -0.019 C 
ATOM     76  C   UNK A   1     -11.358   0.988  -2.166  1.00  0.00    -0.045 C 
ATOM     77  C   UNK A   1     -10.309   0.903  -3.276  1.00  0.00    -0.063 C 
ATOM     78  C   UNK A   1     -11.366   2.384  -1.549  1.00  0.00    -0.063 C 
ATOM     79  C   UNK A   1      -9.995   0.837   0.900  1.00  0.00    +0.266 C 
ATOM     80  O   UNK A   1     -11.048   1.014   1.525  1.00  0.00    -0.270 OA
ATOM     81  N   UNK A   1      -8.824   1.469   1.084  1.00  0.00    -0.234 N 
ATOM     82  C   UNK A   1      -8.729   2.614   2.051  1.00  0.00    +0.157 C 
ATOM     83  C   UNK A   1      -8.877   2.161   3.525  1.00  0.00    +0.075 C 
ATOM     84  O   UNK A   1     -10.261   1.907   3.866  1.00  0.00    -0.394 OA
ATOM     85  C   UNK A   1      -7.376   3.430   1.770  1.00  0.00    +0.269 C 
ATOM     86  O   UNK A   1      -7.267   4.089   0.730  1.00  0.00    -0.270 OA
ATOM     87  N   UNK A   1      -6.484   3.352   2.781  1.00  0.00    -0.235 N 
ATOM     88  C   UNK A   1      -5.152   4.045   2.676  1.00  0.00    +0.143 C 
ATOM     89  C   UNK A   1      -4.088   3.297   1.762  1.00  0.00    +0.027 C 
ATOM     90  S   UNK A   1      -3.152   1.968   2.717  1.00  0.00    -0.140 S 
ATOM     91  C   UNK A   1      -5.200   5.599   2.461  1.00  0.00    +0.267 C 
ATOM     92  O   UNK A   1      -4.598   6.170   1.550  1.00  0.00    -0.270 OA
ATOM     93  N   UNK A   1      -5.856   6.230   3.462  1.00  0.00    -0.238 N 
ATOM     94  C   UNK A   1      -5.977   7.687   3.287  1.00  0.00    +0.140 C 
ATOM     95  C   UNK A   1      -7.135   8.127   4.166  1.00  0.00    +0.325 C 
ATOM     96  O   UNK A   1      -7.400   9.288   4.472  1.00  0.00    -0.250 OA
ATOM     97  O   UNK A   1      -7.888   7.076   4.585  1.00  0.00    -0.480 OA
ATOM     98  C   UNK A   1       1.452   2.679   3.528  1.00  0.00    -0.059 C 
ATOM     99  C   UNK A   1       2.265   3.133   2.491  1.00  0.00    -0.058 C 
ATOM    100  C   UNK A   1       1.830   3.085   1.166  1.00  0.00    -0.038 C 
ATOM    101  C   UNK A   1       2.808   3.454   0.035  1.00  0.00    +0.019 C 
ATOM    102  C   UNK A   1       0.534   2.534   0.924  1.00  0.00    -0.053 C 
ATOM    103  C   UNK A   1      -0.330   2.052   1.968  1.00  0.00    -0.022 C 
ATOM    104  C   UNK A   1      -1.698   1.394   1.581  1.00  0.00    +0.076 C 
ATOM    105  C   UNK A   1       0.179   2.119   3.295  1.00  0.00    -0.046 C 
ATOM    106  C   UNK A   1      -0.547   1.623   4.517  1.00  0.00    -0.039 C 
ATOM    107  H   UNK A   1       5.556   6.624  -2.900  1.00  0.00    +0.060 HD
ATOM    108  H   UNK A   1       6.160   7.878  -4.902  1.00  0.00    +0.025 HD
ATOM    109  H   UNK A   1       6.841   9.206  -3.950  1.00  0.00    +0.025 HD
ATOM    110  H   UNK A   1       7.655   7.650  -3.980  1.00  0.00    +0.025 HD
ATOM    111  H   UNK A   1       6.911   5.248   0.396  1.00  0.00    +0.067 HD
ATOM    112  H   UNK A   1       5.518   3.669  -0.820  1.00  0.00    +0.041 HD
ATOM    113  H   UNK A   1       4.846   4.934  -1.842  1.00  0.00    +0.041 HD
ATOM    114  H   UNK A   1       8.318   2.909  -2.780  1.00  0.00    +0.066 HD
ATOM    115  H   UNK A   1      10.750   2.897  -3.363  1.00  0.00    +0.039 HD
ATOM    116  H   UNK A   1      10.037   4.512  -3.423  1.00  0.00    +0.039 HD
ATOM    117  H   UNK A   1      10.935   3.452  -0.206  1.00  0.00    +0.159 HD
ATOM    118  H   UNK A   1      10.241   4.744  -0.487  1.00  0.00    +0.159 HD
ATOM    119  H   UNK A   1       9.797  -0.817  -0.733  1.00  0.00    +0.069 HD
ATOM    120  H   UNK A   1       7.678  -1.243   0.730  1.00  0.00    +0.063 HD
ATOM    121  H   UNK A   1       6.311   0.636   1.273  1.00  0.00    +0.026 HD
ATOM    122  H   UNK A   1       7.143   1.705   0.173  1.00  0.00    +0.026 HD
ATOM    123  H   UNK A   1       6.117   0.399  -0.471  1.00  0.00    +0.026 HD
ATOM    124  H   UNK A   1       9.413   0.913   0.824  1.00  0.00    +0.211 HD
ATOM    125  H   UNK A   1       6.878  -3.636  -3.002  1.00  0.00    +0.066 HD
ATOM    126  H   UNK A   1       7.840  -4.986  -1.603  1.00  0.00    +0.034 HD
ATOM    127  H   UNK A   1       6.218  -5.414  -1.173  1.00  0.00    +0.034 HD
ATOM    128  H   UNK A   1       9.373  -3.527   0.188  1.00  0.00    +0.082 HD
ATOM    129  H   UNK A   1       9.012  -2.946   2.579  1.00  0.00    +0.166 HD
ATOM    130  H   UNK A   1       7.276  -3.647   4.713  1.00  0.00    +0.064 HD
ATOM    131  H   UNK A   1       4.919  -4.410   5.046  1.00  0.00    +0.062 HD
ATOM    132  H   UNK A   1       3.556  -5.118   3.092  1.00  0.00    +0.062 HD
ATOM    133  H   UNK A   1       4.513  -5.146   0.845  1.00  0.00    +0.063 HD
ATOM    134  H   UNK A   1       2.347  -2.862  -2.359  1.00  0.00    +0.066 HD
ATOM    135  H   UNK A   1       2.713  -5.146  -3.277  1.00  0.00    +0.034 HD
ATOM    136  H   UNK A   1       1.099  -4.931  -2.704  1.00  0.00    +0.034 HD
ATOM    137  H   UNK A   1       0.267  -6.128  -0.725  1.00  0.00    +0.063 HD
ATOM    138  H   UNK A   1       0.424  -8.207   0.587  1.00  0.00    +0.062 HD
ATOM    139  H   UNK A   1       2.542  -9.539   0.579  1.00  0.00    +0.062 HD
ATOM    140  H   UNK A   1       4.494  -8.723  -0.753  1.00  0.00    +0.062 HD
ATOM    141  H   UNK A   1       4.293  -6.632  -2.078  1.00  0.00    +0.063 HD
ATOM    142  H   UNK A   1      -0.467  -3.063   1.149  1.00  0.00    +0.067 HD
ATOM    143  H   UNK A   1       0.144  -0.696   0.197  1.00  0.00    +0.041 HD
ATOM    144  H   UNK A   1      -1.443  -0.719  -0.586  1.00  0.00    +0.041 HD
ATOM    145  H   UNK A   1      -4.592  -2.855  -2.284  1.00  0.00    +0.066 HD
ATOM    146  H   UNK A   1      -4.007  -5.629  -1.202  1.00  0.00    +0.033 HD
ATOM    147  H   UNK A   1      -2.918  -4.360  -3.780  1.00  0.00    +0.023 HD
ATOM    148  H   UNK A   1      -2.806  -6.076  -3.358  1.00  0.00    +0.023 HD
ATOM    149  H   UNK A   1      -1.938  -4.901  -2.407  1.00  0.00    +0.023 HD
ATOM    150  H   UNK A   1      -5.427  -4.693  -3.756  1.00  0.00    +0.027 HD
ATOM    151  H   UNK A   1      -6.284  -5.048  -2.272  1.00  0.00    +0.027 HD
ATOM    152  H   UNK A   1      -4.690  -7.055  -3.921  1.00  0.00    +0.023 HD
ATOM    153  H   UNK A   1      -5.357  -7.396  -2.309  1.00  0.00    +0.023 HD
ATOM    154  H   UNK A   1      -6.431  -6.988  -3.656  1.00  0.00    +0.023 HD
ATOM    155  H   UNK A   1      -4.618  -0.411   0.122  1.00  0.00    +0.049 HD
ATOM    156  H   UNK A   1      -4.151  -1.914   0.975  1.00  0.00    +0.049 HD
ATOM    157  H   UNK A   1      -5.275  -1.156   2.824  1.00  0.00    +0.029 HD
ATOM    158  H   UNK A   1      -5.967   0.180   1.898  1.00  0.00    +0.029 HD
ATOM    159  H   UNK A   1      -7.031  -2.669   2.141  1.00  0.00    +0.029 HD
ATOM    160  H   UNK A   1      -7.928  -1.149   2.278  1.00  0.00    +0.029 HD
ATOM    161  H   UNK A   1      -7.297  -0.615  -0.099  1.00  0.00    +0.064 HD
ATOM    162  H   UNK A   1      -9.095   0.131  -0.956  1.00  0.00    +0.066 HD
ATOM    163  H   UNK A   1     -11.307  -1.095  -1.689  1.00  0.00    +0.030 HD
ATOM    164  H   UNK A   1     -12.089  -0.125  -0.464  1.00  0.00    +0.030 HD
ATOM    165  H   UNK A   1     -12.337   0.846  -2.643  1.00  0.00    +0.030 HD
ATOM    166  H   UNK A   1     -10.544   1.611  -4.078  1.00  0.00    +0.023 HD
ATOM    167  H   UNK A   1      -9.305   1.143  -2.913  1.00  0.00    +0.023 HD
ATOM    168  H   UNK A   1     -10.285  -0.100  -3.715  1.00  0.00    +0.023 HD
ATOM    169  H   UNK A   1     -12.100   2.451  -0.738  1.00  0.00    +0.023 HD
ATOM    170  H   UNK A   1     -10.384   2.663  -1.157  1.00  0.00    +0.023 HD
ATOM    171  H   UNK A   1     -11.638   3.133  -2.302  1.00  0.00    +0.023 HD
ATOM    172  H   UNK A   1      -9.531   3.339   1.848  1.00  0.00    +0.068 HD
ATOM    173  H   UNK A   1      -8.547   2.936   4.223  1.00  0.00    +0.059 HD
ATOM    174  H   UNK A   1      -8.310   1.246   3.729  1.00  0.00    +0.059 HD
ATOM    175  H   UNK A   1     -10.568   1.491   3.020  1.00  0.00    +0.210 HD
ATOM    176  H   UNK A   1      -4.714   3.986   3.688  1.00  0.00    +0.067 HD
ATOM    177  H   UNK A   1      -4.571   2.825   0.900  1.00  0.00    +0.041 HD
ATOM    178  H   UNK A   1      -3.330   4.000   1.406  1.00  0.00    +0.041 HD
ATOM    179  H   UNK A   1      -5.077   8.212   3.621  1.00  0.00    +0.064 HD
ATOM    180  H   UNK A   1      -6.226   7.990   2.264  1.00  0.00    +0.064 HD
ATOM    181  H   UNK A   1      -7.397   6.293   4.165  1.00  0.00    +0.296 HD
ATOM    182  H   UNK A   1       1.848   2.722   4.539  1.00  0.00    +0.063 HD
ATOM    183  H   UNK A   1       3.266   3.484   2.725  1.00  0.00    +0.063 HD
ATOM    184  H   UNK A   1       3.474   2.599  -0.125  1.00  0.00    +0.043 HD
ATOM    185  H   UNK A   1       2.248   3.647  -0.885  1.00  0.00    +0.043 HD
ATOM    186  H   UNK A   1       0.204   2.420  -0.109  1.00  0.00    +0.063 HD
ATOM    187  H   UNK A   1      -1.986   1.603   0.547  1.00  0.00    +0.058 HD
ATOM    188  H   UNK A   1      -1.052   0.671   4.353  1.00  0.00    +0.028 HD
ATOM    189  H   UNK A   1      -1.257   2.377   4.870  1.00  0.00    +0.028 HD
ATOM    190  H   UNK A   1       0.156   1.434   5.339  1.00  0.00    +0.028 HD
ENDROOT
TORSDOF 0