MODEL 1
REMARK VINA RESULT:      -6.5      0.000      0.000
REMARK  Generated by RDKit with Gasteiger charges
REMARK  --------------------------------------------------
ROOT
ATOM      1  N   UNK A   1     -21.657  18.177   1.269  1.00  0.00    -0.131 N 
ATOM      2  C   UNK A   1     -20.642  18.191   2.345  1.00  0.00    +0.121 C 
ATOM      3  C   UNK A   1     -19.719  19.383   2.090  1.00  0.00    -0.037 C 
ATOM      4  C   UNK A   1     -21.361  18.376   3.699  1.00  0.00    +0.262 C 
ATOM      5  O   UNK A   1     -22.401  19.051   3.758  1.00  0.00    -0.271 OA
ATOM      6  N   UNK A   1     -20.675  17.941   4.769  1.00  0.00    -0.236 N 
ATOM      7  C   UNK A   1     -20.246  16.488   4.791  1.00  0.00    +0.143 C 
ATOM      8  C   UNK A   1     -18.695  16.314   5.042  1.00  0.00    +0.025 C 
ATOM      9  S   UNK A   1     -17.519  16.817   3.643  1.00  0.00    -0.154 S 
ATOM     10  C   UNK A   1     -21.153  15.727   5.881  1.00  0.00    +0.267 C 
ATOM     11  O   UNK A   1     -22.385  15.706   5.754  1.00  0.00    -0.270 OA
ATOM     12  N   UNK A   1     -20.440  15.177   6.879  1.00  0.00    -0.236 N 
ATOM     13  C   UNK A   1     -21.033  14.004   7.629  1.00  0.00    +0.136 C 
ATOM     14  C   UNK A   1     -21.316  12.795   6.672  1.00  0.00    -0.015 C 
ATOM     15  C   UNK A   1     -20.091  12.241   5.944  1.00  0.00    -0.060 C 
ATOM     16  C   UNK A   1     -22.109  11.665   7.337  1.00  0.00    -0.060 C 
ATOM     17  C   UNK A   1     -20.177  13.761   8.963  1.00  0.00    +0.267 C 
ATOM     18  O   UNK A   1     -20.100  14.668   9.802  1.00  0.00    -0.270 OA
ATOM     19  N   UNK A   1     -19.725  12.494   9.133  1.00  0.00    -0.236 N 
ATOM     20  C   UNK A   1     -18.420  12.359   9.905  1.00  0.00    +0.136 C 
ATOM     21  C   UNK A   1     -18.691  12.439  11.443  1.00  0.00    -0.015 C 
ATOM     22  C   UNK A   1     -17.453  12.900  12.217  1.00  0.00    -0.060 C 
ATOM     23  C   UNK A   1     -19.239  11.140  12.042  1.00  0.00    -0.060 C 
ATOM     24  C   UNK A   1     -17.603  11.028   9.530  1.00  0.00    +0.267 C 
ATOM     25  O   UNK A   1     -18.189   9.990   9.193  1.00  0.00    -0.270 OA
ATOM     26  N   UNK A   1     -16.275  11.114   9.837  1.00  0.00    -0.236 N 
ATOM     27  C   UNK A   1     -15.318  10.951   8.659  1.00  0.00    +0.137 C 
ATOM     28  C   UNK A   1     -14.722  12.341   8.174  1.00  0.00    -0.013 C 
ATOM     29  C   UNK A   1     -15.047  13.589   9.014  1.00  0.00    -0.060 C 
ATOM     30  C   UNK A   1     -14.984  12.607   6.668  1.00  0.00    -0.051 C 
ATOM     31  C   UNK A   1     -16.450  12.751   6.279  1.00  0.00    -0.065 C 
ATOM     32  C   UNK A   1     -14.056   9.988   8.906  1.00  0.00    +0.267 C 
ATOM     33  O   UNK A   1     -13.764   9.502  10.008  1.00  0.00    -0.270 OA
ATOM     34  N   UNK A   1     -13.428   9.694   7.739  1.00  0.00    -0.236 N 
ATOM     35  C   UNK A   1     -11.916   9.922   7.669  1.00  0.00    +0.138 C 
ATOM     36  C   UNK A   1     -11.181   8.666   8.197  1.00  0.00    +0.004 C 
ATOM     37  C   UNK A   1     -10.072   8.942   9.207  1.00  0.00    -0.045 C 
ATOM     38  C   UNK A   1     -10.344   8.880  10.581  1.00  0.00    -0.059 C 
ATOM     39  C   UNK A   1      -9.325   9.115  11.509  1.00  0.00    -0.062 C 
ATOM     40  C   UNK A   1      -8.036   9.419  11.067  1.00  0.00    -0.062 C 
ATOM     41  C   UNK A   1      -7.772   9.513   9.698  1.00  0.00    -0.062 C 
ATOM     42  C   UNK A   1      -8.786   9.279   8.768  1.00  0.00    -0.059 C 
ATOM     43  C   UNK A   1     -11.430  10.114   6.144  1.00  0.00    +0.267 C 
ATOM     44  O   UNK A   1     -11.948   9.437   5.244  1.00  0.00    -0.270 OA
ATOM     45  N   UNK A   1     -10.365  10.963   6.025  1.00  0.00    -0.235 N 
ATOM     46  C   UNK A   1      -9.868  11.219   4.606  1.00  0.00    +0.143 C 
ATOM     47  C   UNK A   1      -9.527  12.721   4.280  1.00  0.00    +0.027 C 
ATOM     48  S   UNK A   1     -10.798  14.102   4.494  1.00  0.00    -0.140 S 
ATOM     49  C   UNK A   1      -8.635  10.299   4.161  1.00  0.00    +0.267 C 
ATOM     50  O   UNK A   1      -8.846   9.365   3.373  1.00  0.00    -0.270 OA
ATOM     51  N   UNK A   1      -7.412  10.572   4.682  1.00  0.00    -0.239 N 
ATOM     52  C   UNK A   1      -6.488  11.333   3.774  1.00  0.00    +0.124 C 
ATOM     53  C   UNK A   1      -5.138  10.689   3.239  1.00  0.00    +0.263 C 
ATOM     54  O   UNK A   1      -4.553   9.762   3.807  1.00  0.00    -0.271 OA
ATOM     55  N   UNK A   1      -4.689  11.389   2.165  1.00  0.00    -0.236 N 
ATOM     56  C   UNK A   1      -3.632  10.789   1.294  1.00  0.00    +0.140 C 
ATOM     57  C   UNK A   1      -4.024   9.566   0.389  1.00  0.00    +0.023 C 
ATOM     58  C   UNK A   1      -5.401   8.986   0.477  1.00  0.00    +0.061 C 
ATOM     59  C   UNK A   1      -6.592   9.681   0.550  1.00  0.00    +0.024 C 
ATOM     60  N   UNK A   1      -7.422   8.824   1.223  1.00  0.00    -0.351 N 
ATOM     61  C   UNK A   1      -6.851   7.586   1.145  1.00  0.00    +0.092 C 
ATOM     62  N   UNK A   1      -5.636   7.617   0.631  1.00  0.00    -0.242 N 
ATOM     63  C   UNK A   1      -2.897  11.821   0.340  1.00  0.00    +0.267 C 
ATOM     64  O   UNK A   1      -1.677  11.670   0.133  1.00  0.00    -0.270 OA
ATOM     65  N   UNK A   1      -3.709  12.676  -0.325  1.00  0.00    -0.235 N 
ATOM     66  C   UNK A   1      -3.045  13.844  -0.956  1.00  0.00    +0.143 C 
ATOM     67  C   UNK A   1      -2.590  13.514  -2.399  1.00  0.00    +0.058 C 
ATOM     68  C   UNK A   1      -3.653  13.190  -3.445  1.00  0.00    +0.220 C 
ATOM     69  O   UNK A   1      -3.373  13.066  -4.651  1.00  0.00    -0.275 OA
ATOM     70  N   UNK A   1      -4.936  13.022  -3.024  1.00  0.00    -0.370 N 
ATOM     71  C   UNK A   1      -3.736  15.253  -0.940  1.00  0.00    +0.267 C 
ATOM     72  O   UNK A   1      -3.012  16.247  -0.773  1.00  0.00    -0.270 OA
ATOM     73  N   UNK A   1      -5.038  15.261  -1.299  1.00  0.00    -0.236 N 
ATOM     74  C   UNK A   1      -5.778  16.574  -1.124  1.00  0.00    +0.138 C 
ATOM     75  C   UNK A   1      -5.333  17.669  -2.146  1.00  0.00    +0.004 C 
ATOM     76  C   UNK A   1      -4.956  17.201  -3.546  1.00  0.00    -0.045 C 
ATOM     77  C   UNK A   1      -3.608  16.958  -3.853  1.00  0.00    -0.055 C 
ATOM     78  C   UNK A   1      -3.266  16.276  -5.017  1.00  0.00    -0.020 C 
ATOM     79  C   UNK A   1      -4.281  15.839  -5.869  1.00  0.00    +0.115 C 
ATOM     80  O   UNK A   1      -3.958  14.887  -6.807  1.00  0.00    -0.508 OA
ATOM     81  C   UNK A   1      -5.617  16.159  -5.643  1.00  0.00    -0.020 C 
ATOM     82  C   UNK A   1      -5.953  16.848  -4.476  1.00  0.00    -0.055 C 
ATOM     83  C   UNK A   1      -7.358  16.444  -1.212  1.00  0.00    +0.267 C 
ATOM     84  O   UNK A   1      -7.910  15.771  -2.094  1.00  0.00    -0.270 OA
ATOM     85  N   UNK A   1      -7.976  17.256  -0.308  1.00  0.00    -0.235 N 
ATOM     86  C   UNK A   1      -9.479  17.338  -0.402  1.00  0.00    +0.143 C 
ATOM     87  C   UNK A   1     -10.239  16.292   0.502  1.00  0.00    +0.027 C 
ATOM     88  S   UNK A   1     -10.300  16.333   2.380  1.00  0.00    -0.140 S 
ATOM     89  C   UNK A   1      -9.976  18.828  -0.287  1.00  0.00    +0.267 C 
ATOM     90  O   UNK A   1     -10.729  19.274   0.578  1.00  0.00    -0.270 OA
ATOM     91  N   UNK A   1      -9.630  19.587  -1.349  1.00  0.00    -0.238 N 
ATOM     92  C   UNK A   1      -8.721  20.690  -0.967  1.00  0.00    +0.140 C 
ATOM     93  C   UNK A   1      -9.412  22.000  -1.304  1.00  0.00    +0.325 C 
ATOM     94  O   UNK A   1      -8.852  23.080  -1.511  1.00  0.00    -0.250 OA
ATOM     95  O   UNK A   1     -10.766  21.875  -1.303  1.00  0.00    -0.480 OA
ATOM     96  C   UNK A   1     -14.697  13.974   1.310  1.00  0.00    -0.059 C 
ATOM     97  C   UNK A   1     -15.530  14.682   2.187  1.00  0.00    -0.058 C 
ATOM     98  C   UNK A   1     -14.996  15.461   3.213  1.00  0.00    -0.038 C 
ATOM     99  C   UNK A   1     -15.900  16.119   4.264  1.00  0.00    +0.019 C 
ATOM    100  C   UNK A   1     -13.577  15.488   3.346  1.00  0.00    -0.053 C 
ATOM    101  C   UNK A   1     -12.700  14.738   2.491  1.00  0.00    -0.022 C 
ATOM    102  C   UNK A   1     -11.155  14.679   2.740  1.00  0.00    +0.076 C 
ATOM    103  C   UNK A   1     -13.294  13.979   1.453  1.00  0.00    -0.046 C 
ATOM    104  C   UNK A   1     -12.474  13.132   0.517  1.00  0.00    -0.039 C 
ATOM    105  H   UNK A   1     -20.093  17.251   2.278  1.00  0.00    +0.060 HD
ATOM    106  H   UNK A   1     -19.007  19.510   2.912  1.00  0.00    +0.025 HD
ATOM    107  H   UNK A   1     -20.291  20.310   2.003  1.00  0.00    +0.025 HD
ATOM    108  H   UNK A   1     -19.152  19.258   1.164  1.00  0.00    +0.025 HD
ATOM    109  H   UNK A   1     -20.471  15.946   3.860  1.00  0.00    +0.067 HD
ATOM    110  H   UNK A   1     -18.378  16.878   5.927  1.00  0.00    +0.041 HD
ATOM    111  H   UNK A   1     -18.480  15.253   5.169  1.00  0.00    +0.041 HD
ATOM    112  H   UNK A   1     -22.018  14.301   8.026  1.00  0.00    +0.066 HD
ATOM    113  H   UNK A   1     -21.982  13.169   5.879  1.00  0.00    +0.032 HD
ATOM    114  H   UNK A   1     -19.499  13.043   5.492  1.00  0.00    +0.023 HD
ATOM    115  H   UNK A   1     -19.433  11.659   6.598  1.00  0.00    +0.023 HD
ATOM    116  H   UNK A   1     -20.408  11.572   5.133  1.00  0.00    +0.023 HD
ATOM    117  H   UNK A   1     -21.515  11.102   8.063  1.00  0.00    +0.023 HD
ATOM    118  H   UNK A   1     -22.978  12.065   7.878  1.00  0.00    +0.023 HD
ATOM    119  H   UNK A   1     -22.479  10.960   6.582  1.00  0.00    +0.023 HD
ATOM    120  H   UNK A   1     -17.780  13.198   9.610  1.00  0.00    +0.066 HD
ATOM    121  H   UNK A   1     -19.450  13.209  11.634  1.00  0.00    +0.032 HD
ATOM    122  H   UNK A   1     -17.029  13.800  11.760  1.00  0.00    +0.023 HD
ATOM    123  H   UNK A   1     -17.721  13.148  13.252  1.00  0.00    +0.023 HD
ATOM    124  H   UNK A   1     -16.678  12.133  12.258  1.00  0.00    +0.023 HD
ATOM    125  H   UNK A   1     -20.162  10.832  11.537  1.00  0.00    +0.023 HD
ATOM    126  H   UNK A   1     -19.477  11.272  13.104  1.00  0.00    +0.023 HD
ATOM    127  H   UNK A   1     -18.517  10.318  11.974  1.00  0.00    +0.023 HD
ATOM    128  H   UNK A   1     -15.858  10.464   7.838  1.00  0.00    +0.066 HD
ATOM    129  H   UNK A   1     -13.631  12.272   8.267  1.00  0.00    +0.033 HD
ATOM    130  H   UNK A   1     -14.355  14.404   8.773  1.00  0.00    +0.023 HD
ATOM    131  H   UNK A   1     -16.050  13.968   8.828  1.00  0.00    +0.023 HD
ATOM    132  H   UNK A   1     -14.921  13.383  10.085  1.00  0.00    +0.023 HD
ATOM    133  H   UNK A   1     -14.540  11.803   6.068  1.00  0.00    +0.027 HD
ATOM    134  H   UNK A   1     -14.453  13.524   6.377  1.00  0.00    +0.027 HD
ATOM    135  H   UNK A   1     -17.013  11.846   6.522  1.00  0.00    +0.023 HD
ATOM    136  H   UNK A   1     -16.541  12.905   5.198  1.00  0.00    +0.023 HD
ATOM    137  H   UNK A   1     -16.924  13.595   6.790  1.00  0.00    +0.023 HD
ATOM    138  H   UNK A   1     -11.636  10.821   8.234  1.00  0.00    +0.066 HD
ATOM    139  H   UNK A   1     -11.885   7.966   8.668  1.00  0.00    +0.034 HD
ATOM    140  H   UNK A   1     -10.743   8.084   7.372  1.00  0.00    +0.034 HD
ATOM    141  H   UNK A   1     -11.366   8.713  10.905  1.00  0.00    +0.063 HD
ATOM    142  H   UNK A   1      -9.566   9.118  12.563  1.00  0.00    +0.062 HD
ATOM    143  H   UNK A   1      -7.250   9.639  11.780  1.00  0.00    +0.062 HD
ATOM    144  H   UNK A   1      -6.797   9.816   9.323  1.00  0.00    +0.062 HD
ATOM    145  H   UNK A   1      -8.603   9.402   7.697  1.00  0.00    +0.063 HD
ATOM    146  H   UNK A   1     -10.661  10.977   3.882  1.00  0.00    +0.067 HD
ATOM    147  H   UNK A   1      -9.189  12.778   3.239  1.00  0.00    +0.041 HD
ATOM    148  H   UNK A   1      -8.681  13.042   4.903  1.00  0.00    +0.041 HD
ATOM    149  H   UNK A   1      -7.031  11.732   2.906  1.00  0.00    +0.062 HD
ATOM    150  H   UNK A   1      -6.146  12.214   4.342  1.00  0.00    +0.062 HD
ATOM    151  H   UNK A   1      -2.824  10.436   1.966  1.00  0.00    +0.066 HD
ATOM    152  H   UNK A   1      -3.344   8.740   0.678  1.00  0.00    +0.036 HD
ATOM    153  H   UNK A   1      -3.783   9.754  -0.667  1.00  0.00    +0.036 HD
ATOM    154  H   UNK A   1      -6.775  10.747   0.535  1.00  0.00    +0.084 HD
ATOM    155  H   UNK A   1      -8.158   9.118   1.871  1.00  0.00    +0.167 HD
ATOM    156  H   UNK A   1      -7.341   6.733   1.587  1.00  0.00    +0.104 HD
ATOM    157  H   UNK A   1      -2.114  14.054  -0.406  1.00  0.00    +0.066 HD
ATOM    158  H   UNK A   1      -1.906  12.655  -2.383  1.00  0.00    +0.039 HD
ATOM    159  H   UNK A   1      -2.023  14.367  -2.790  1.00  0.00    +0.039 HD
ATOM    160  H   UNK A   1      -4.924  12.612  -2.064  1.00  0.00    +0.159 HD
ATOM    161  H   UNK A   1      -5.281  13.929  -2.637  1.00  0.00    +0.159 HD
ATOM    162  H   UNK A   1      -5.570  16.970  -0.115  1.00  0.00    +0.066 HD
ATOM    163  H   UNK A   1      -6.096  18.455  -2.234  1.00  0.00    +0.034 HD
ATOM    164  H   UNK A   1      -4.461  18.185  -1.721  1.00  0.00    +0.034 HD
ATOM    165  H   UNK A   1      -2.850  17.140  -3.090  1.00  0.00    +0.063 HD
ATOM    166  H   UNK A   1      -2.246  15.944  -5.160  1.00  0.00    +0.066 HD
ATOM    167  H   UNK A   1      -3.843  14.104  -6.197  1.00  0.00    +0.293 HD
ATOM    168  H   UNK A   1      -6.410  15.758  -6.270  1.00  0.00    +0.066 HD
ATOM    169  H   UNK A   1      -7.004  16.978  -4.193  1.00  0.00    +0.063 HD
ATOM    170  H   UNK A   1      -9.811  17.067  -1.418  1.00  0.00    +0.067 HD
ATOM    171  H   UNK A   1     -11.300  16.299   0.202  1.00  0.00    +0.041 HD
ATOM    172  H   UNK A   1      -9.864  15.289   0.253  1.00  0.00    +0.041 HD
ATOM    173  H   UNK A   1      -8.474  20.730   0.104  1.00  0.00    +0.064 HD
ATOM    174  H   UNK A   1      -7.786  20.639  -1.544  1.00  0.00    +0.064 HD
ATOM    175  H   UNK A   1     -10.878  20.898  -1.053  1.00  0.00    +0.296 HD
ATOM    176  H   UNK A   1     -15.164  13.368   0.537  1.00  0.00    +0.063 HD
ATOM    177  H   UNK A   1     -16.601  14.561   2.087  1.00  0.00    +0.063 HD
ATOM    178  H   UNK A   1     -16.093  15.410   5.076  1.00  0.00    +0.043 HD
ATOM    179  H   UNK A   1     -15.367  16.998   4.654  1.00  0.00    +0.043 HD
ATOM    180  H   UNK A   1     -13.127  16.049   4.171  1.00  0.00    +0.063 HD
ATOM    181  H   UNK A   1     -10.692  13.956   2.069  1.00  0.00    +0.058 HD
ATOM    182  H   UNK A   1     -13.103  12.642  -0.235  1.00  0.00    +0.028 HD
ATOM    183  H   UNK A   1     -11.943  12.354   1.066  1.00  0.00    +0.028 HD
ATOM    184  H   UNK A   1     -11.762  13.748  -0.034  1.00  0.00    +0.028 HD
ENDROOT
TORSDOF 0
ENDMDL
MODEL 2
REMARK VINA RESULT:      -4.8      2.700     14.101
REMARK  Generated by RDKit with Gasteiger charges
REMARK  --------------------------------------------------
ROOT
ATOM      1  N   UNK A   1     -11.883  24.917  -2.386  1.00  0.00    -0.131 N 
ATOM      2  C   UNK A   1     -11.727  23.511  -2.818  1.00  0.00    +0.121 C 
ATOM      3  C   UNK A   1     -13.129  22.930  -3.009  1.00  0.00    -0.037 C 
ATOM      4  C   UNK A   1     -10.971  23.489  -4.164  1.00  0.00    +0.262 C 
ATOM      5  O   UNK A   1     -11.124  24.418  -4.972  1.00  0.00    -0.271 OA
ATOM      6  N   UNK A   1     -10.342  22.335  -4.442  1.00  0.00    -0.236 N 
ATOM      7  C   UNK A   1      -9.313  21.833  -3.450  1.00  0.00    +0.143 C 
ATOM      8  C   UNK A   1      -9.590  20.349  -2.982  1.00  0.00    +0.025 C 
ATOM      9  S   UNK A   1     -11.080  20.052  -1.847  1.00  0.00    -0.154 S 
ATOM     10  C   UNK A   1      -7.860  22.027  -4.113  1.00  0.00    +0.267 C 
ATOM     11  O   UNK A   1      -7.477  23.158  -4.444  1.00  0.00    -0.270 OA
ATOM     12  N   UNK A   1      -7.182  20.875  -4.262  1.00  0.00    -0.236 N 
ATOM     13  C   UNK A   1      -5.672  20.929  -4.325  1.00  0.00    +0.136 C 
ATOM     14  C   UNK A   1      -5.065  21.545  -3.016  1.00  0.00    -0.015 C 
ATOM     15  C   UNK A   1      -5.397  20.790  -1.728  1.00  0.00    -0.060 C 
ATOM     16  C   UNK A   1      -3.560  21.816  -3.113  1.00  0.00    -0.060 C 
ATOM     17  C   UNK A   1      -5.128  19.514  -4.847  1.00  0.00    +0.267 C 
ATOM     18  O   UNK A   1      -5.478  19.110  -5.965  1.00  0.00    -0.270 OA
ATOM     19  N   UNK A   1      -4.185  18.935  -4.064  1.00  0.00    -0.236 N 
ATOM     20  C   UNK A   1      -4.155  17.414  -4.084  1.00  0.00    +0.136 C 
ATOM     21  C   UNK A   1      -3.382  16.904  -5.344  1.00  0.00    -0.015 C 
ATOM     22  C   UNK A   1      -3.808  15.488  -5.741  1.00  0.00    -0.060 C 
ATOM     23  C   UNK A   1      -1.859  16.982  -5.207  1.00  0.00    -0.060 C 
ATOM     24  C   UNK A   1      -3.551  16.779  -2.739  1.00  0.00    +0.267 C 
ATOM     25  O   UNK A   1      -2.676  17.369  -2.088  1.00  0.00    -0.270 OA
ATOM     26  N   UNK A   1      -3.933  15.482  -2.543  1.00  0.00    -0.236 N 
ATOM     27  C   UNK A   1      -4.704  15.213  -1.253  1.00  0.00    +0.137 C 
ATOM     28  C   UNK A   1      -6.262  15.044  -1.510  1.00  0.00    -0.013 C 
ATOM     29  C   UNK A   1      -6.745  15.018  -2.971  1.00  0.00    -0.060 C 
ATOM     30  C   UNK A   1      -7.113  16.029  -0.666  1.00  0.00    -0.051 C 
ATOM     31  C   UNK A   1      -6.908  17.505  -0.986  1.00  0.00    -0.065 C 
ATOM     32  C   UNK A   1      -4.248  13.917  -0.419  1.00  0.00    +0.267 C 
ATOM     33  O   UNK A   1      -3.426  13.086  -0.829  1.00  0.00    -0.270 OA
ATOM     34  N   UNK A   1      -4.794  13.918   0.824  1.00  0.00    -0.236 N 
ATOM     35  C   UNK A   1      -5.536  12.657   1.275  1.00  0.00    +0.138 C 
ATOM     36  C   UNK A   1      -4.527  11.659   1.892  1.00  0.00    +0.004 C 
ATOM     37  C   UNK A   1      -4.645  10.224   1.387  1.00  0.00    -0.045 C 
ATOM     38  C   UNK A   1      -3.836   9.784   0.330  1.00  0.00    -0.059 C 
ATOM     39  C   UNK A   1      -3.929   8.465  -0.123  1.00  0.00    -0.062 C 
ATOM     40  C   UNK A   1      -4.835   7.586   0.474  1.00  0.00    -0.062 C 
ATOM     41  C   UNK A   1      -5.665   8.033   1.507  1.00  0.00    -0.062 C 
ATOM     42  C   UNK A   1      -5.574   9.350   1.962  1.00  0.00    -0.059 C 
ATOM     43  C   UNK A   1      -6.597  12.996   2.440  1.00  0.00    +0.267 C 
ATOM     44  O   UNK A   1      -6.308  13.831   3.311  1.00  0.00    -0.270 OA
ATOM     45  N   UNK A   1      -7.706  12.198   2.402  1.00  0.00    -0.235 N 
ATOM     46  C   UNK A   1      -8.770  12.480   3.458  1.00  0.00    +0.143 C 
ATOM     47  C   UNK A   1     -10.253  12.465   2.929  1.00  0.00    +0.027 C 
ATOM     48  S   UNK A   1     -10.818  13.577   1.511  1.00  0.00    -0.140 S 
ATOM     49  C   UNK A   1      -8.674  11.552   4.760  1.00  0.00    +0.267 C 
ATOM     50  O   UNK A   1      -8.232  12.044   5.808  1.00  0.00    -0.270 OA
ATOM     51  N   UNK A   1      -9.066  10.257   4.652  1.00  0.00    -0.239 N 
ATOM     52  C   UNK A   1     -10.437   9.959   5.190  1.00  0.00    +0.124 C 
ATOM     53  C   UNK A   1     -10.648   8.995   6.435  1.00  0.00    +0.263 C 
ATOM     54  O   UNK A   1      -9.831   8.135   6.775  1.00  0.00    -0.271 OA
ATOM     55  N   UNK A   1     -11.885   9.187   6.960  1.00  0.00    -0.236 N 
ATOM     56  C   UNK A   1     -12.191   8.645   8.320  1.00  0.00    +0.140 C 
ATOM     57  C   UNK A   1     -11.510   9.329   9.560  1.00  0.00    +0.023 C 
ATOM     58  C   UNK A   1     -10.523  10.435   9.352  1.00  0.00    +0.061 C 
ATOM     59  C   UNK A   1     -10.632  11.490   8.468  1.00  0.00    +0.024 C 
ATOM     60  N   UNK A   1      -9.331  11.813   8.191  1.00  0.00    -0.351 N 
ATOM     61  C   UNK A   1      -8.572  11.254   9.180  1.00  0.00    +0.092 C 
ATOM     62  N   UNK A   1      -9.267  10.452   9.964  1.00  0.00    -0.242 N 
ATOM     63  C   UNK A   1     -13.736   8.557   8.664  1.00  0.00    +0.267 C 
ATOM     64  O   UNK A   1     -14.138   7.586   9.334  1.00  0.00    -0.270 OA
ATOM     65  N   UNK A   1     -14.463   9.656   8.356  1.00  0.00    -0.235 N 
ATOM     66  C   UNK A   1     -15.937   9.483   8.359  1.00  0.00    +0.143 C 
ATOM     67  C   UNK A   1     -16.528   9.766   9.763  1.00  0.00    +0.058 C 
ATOM     68  C   UNK A   1     -16.404  11.174  10.339  1.00  0.00    +0.220 C 
ATOM     69  O   UNK A   1     -16.986  11.510  11.386  1.00  0.00    -0.275 OA
ATOM     70  N   UNK A   1     -15.621  12.069   9.679  1.00  0.00    -0.370 N 
ATOM     71  C   UNK A   1     -16.822  10.189   7.274  1.00  0.00    +0.267 C 
ATOM     72  O   UNK A   1     -17.791   9.560   6.822  1.00  0.00    -0.270 OA
ATOM     73  N   UNK A   1     -16.551  11.497   7.069  1.00  0.00    -0.236 N 
ATOM     74  C   UNK A   1     -17.264  12.161   5.907  1.00  0.00    +0.138 C 
ATOM     75  C   UNK A   1     -18.792  12.362   6.160  1.00  0.00    +0.004 C 
ATOM     76  C   UNK A   1     -19.224  12.680   7.586  1.00  0.00    -0.045 C 
ATOM     77  C   UNK A   1     -19.645  11.640   8.429  1.00  0.00    -0.055 C 
ATOM     78  C   UNK A   1     -19.779  11.856   9.798  1.00  0.00    -0.020 C 
ATOM     79  C   UNK A   1     -19.488  13.119  10.314  1.00  0.00    +0.115 C 
ATOM     80  O   UNK A   1     -19.288  13.219  11.672  1.00  0.00    -0.508 OA
ATOM     81  C   UNK A   1     -19.171  14.194   9.491  1.00  0.00    -0.020 C 
ATOM     82  C   UNK A   1     -19.045  13.973   8.117  1.00  0.00    -0.055 C 
ATOM     83  C   UNK A   1     -16.654  13.566   5.488  1.00  0.00    +0.267 C 
ATOM     84  O   UNK A   1     -16.347  14.421   6.331  1.00  0.00    -0.270 OA
ATOM     85  N   UNK A   1     -16.655  13.727   4.136  1.00  0.00    -0.235 N 
ATOM     86  C   UNK A   1     -16.244  15.086   3.624  1.00  0.00    +0.143 C 
ATOM     87  C   UNK A   1     -14.703  15.219   3.315  1.00  0.00    +0.027 C 
ATOM     88  S   UNK A   1     -13.806  14.358   1.906  1.00  0.00    -0.140 S 
ATOM     89  C   UNK A   1     -17.214  15.582   2.486  1.00  0.00    +0.267 C 
ATOM     90  O   UNK A   1     -16.892  15.850   1.330  1.00  0.00    -0.270 OA
ATOM     91  N   UNK A   1     -18.457  15.861   2.932  1.00  0.00    -0.238 N 
ATOM     92  C   UNK A   1     -19.474  14.975   2.326  1.00  0.00    +0.140 C 
ATOM     93  C   UNK A   1     -20.450  15.846   1.554  1.00  0.00    +0.325 C 
ATOM     94  O   UNK A   1     -21.611  15.549   1.265  1.00  0.00    -0.250 OA
ATOM     95  O   UNK A   1     -19.879  17.012   1.149  1.00  0.00    -0.480 OA
ATOM     96  C   UNK A   1     -10.902  18.509   2.521  1.00  0.00    -0.059 C 
ATOM     97  C   UNK A   1     -10.758  18.862   1.172  1.00  0.00    -0.058 C 
ATOM     98  C   UNK A   1     -11.073  17.960   0.157  1.00  0.00    -0.038 C 
ATOM     99  C   UNK A   1     -10.779  18.285  -1.314  1.00  0.00    +0.019 C 
ATOM    100  C   UNK A   1     -11.523  16.664   0.545  1.00  0.00    -0.053 C 
ATOM    101  C   UNK A   1     -11.638  16.259   1.918  1.00  0.00    -0.022 C 
ATOM    102  C   UNK A   1     -12.006  14.791   2.318  1.00  0.00    +0.076 C 
ATOM    103  C   UNK A   1     -11.324  17.221   2.910  1.00  0.00    -0.046 C 
ATOM    104  C   UNK A   1     -11.380  16.897   4.379  1.00  0.00    -0.039 C 
ATOM    105  H   UNK A   1     -11.194  22.990  -2.020  1.00  0.00    +0.060 HD
ATOM    106  H   UNK A   1     -13.080  21.921  -3.429  1.00  0.00    +0.025 HD
ATOM    107  H   UNK A   1     -13.717  23.545  -3.696  1.00  0.00    +0.025 HD
ATOM    108  H   UNK A   1     -13.672  22.880  -2.063  1.00  0.00    +0.025 HD
ATOM    109  H   UNK A   1      -9.250  22.440  -2.534  1.00  0.00    +0.067 HD
ATOM    110  H   UNK A   1      -9.726  19.687  -3.845  1.00  0.00    +0.041 HD
ATOM    111  H   UNK A   1      -8.751  20.014  -2.372  1.00  0.00    +0.041 HD
ATOM    112  H   UNK A   1      -5.376  21.614  -5.136  1.00  0.00    +0.066 HD
ATOM    113  H   UNK A   1      -5.517  22.540  -2.896  1.00  0.00    +0.032 HD
ATOM    114  H   UNK A   1      -6.465  20.563  -1.664  1.00  0.00    +0.023 HD
ATOM    115  H   UNK A   1      -4.841  19.853  -1.627  1.00  0.00    +0.023 HD
ATOM    116  H   UNK A   1      -5.142  21.408  -0.857  1.00  0.00    +0.023 HD
ATOM    117  H   UNK A   1      -2.962  20.900  -3.099  1.00  0.00    +0.023 HD
ATOM    118  H   UNK A   1      -3.318  22.339  -4.049  1.00  0.00    +0.023 HD
ATOM    119  H   UNK A   1      -3.230  22.450  -2.280  1.00  0.00    +0.023 HD
ATOM    120  H   UNK A   1      -5.195  17.070  -4.139  1.00  0.00    +0.066 HD
ATOM    121  H   UNK A   1      -3.645  17.533  -6.205  1.00  0.00    +0.032 HD
ATOM    122  H   UNK A   1      -4.899  15.416  -5.790  1.00  0.00    +0.023 HD
ATOM    123  H   UNK A   1      -3.414  15.235  -6.734  1.00  0.00    +0.023 HD
ATOM    124  H   UNK A   1      -3.441  14.732  -5.044  1.00  0.00    +0.023 HD
ATOM    125  H   UNK A   1      -1.535  18.006  -4.984  1.00  0.00    +0.023 HD
ATOM    126  H   UNK A   1      -1.369  16.680  -6.140  1.00  0.00    +0.023 HD
ATOM    127  H   UNK A   1      -1.481  16.321  -4.418  1.00  0.00    +0.023 HD
ATOM    128  H   UNK A   1      -4.522  16.044  -0.561  1.00  0.00    +0.066 HD
ATOM    129  H   UNK A   1      -6.540  14.046  -1.151  1.00  0.00    +0.033 HD
ATOM    130  H   UNK A   1      -7.757  14.601  -3.031  1.00  0.00    +0.023 HD
ATOM    131  H   UNK A   1      -6.792  16.012  -3.413  1.00  0.00    +0.023 HD
ATOM    132  H   UNK A   1      -6.105  14.369  -3.583  1.00  0.00    +0.023 HD
ATOM    133  H   UNK A   1      -6.911  15.872   0.401  1.00  0.00    +0.027 HD
ATOM    134  H   UNK A   1      -8.175  15.785  -0.808  1.00  0.00    +0.027 HD
ATOM    135  H   UNK A   1      -5.868  17.802  -0.827  1.00  0.00    +0.023 HD
ATOM    136  H   UNK A   1      -7.523  18.125  -0.324  1.00  0.00    +0.023 HD
ATOM    137  H   UNK A   1      -7.175  17.736  -2.021  1.00  0.00    +0.023 HD
ATOM    138  H   UNK A   1      -6.082  12.212   0.433  1.00  0.00    +0.066 HD
ATOM    139  H   UNK A   1      -3.492  11.984   1.714  1.00  0.00    +0.034 HD
ATOM    140  H   UNK A   1      -4.610  11.634   2.988  1.00  0.00    +0.034 HD
ATOM    141  H   UNK A   1      -3.191  10.501  -0.168  1.00  0.00    +0.063 HD
ATOM    142  H   UNK A   1      -3.338   8.160  -0.975  1.00  0.00    +0.062 HD
ATOM    143  H   UNK A   1      -4.940   6.573   0.104  1.00  0.00    +0.062 HD
ATOM    144  H   UNK A   1      -6.427   7.393   1.945  1.00  0.00    +0.062 HD
ATOM    145  H   UNK A   1      -6.254   9.724   2.731  1.00  0.00    +0.063 HD
ATOM    146  H   UNK A   1      -8.650  13.503   3.846  1.00  0.00    +0.067 HD
ATOM    147  H   UNK A   1     -10.920  12.684   3.771  1.00  0.00    +0.041 HD
ATOM    148  H   UNK A   1     -10.504  11.452   2.587  1.00  0.00    +0.041 HD
ATOM    149  H   UNK A   1     -10.989  10.887   5.393  1.00  0.00    +0.062 HD
ATOM    150  H   UNK A   1     -10.990   9.457   4.378  1.00  0.00    +0.062 HD
ATOM    151  H   UNK A   1     -11.863   7.587   8.325  1.00  0.00    +0.066 HD
ATOM    152  H   UNK A   1     -10.942   8.530  10.077  1.00  0.00    +0.036 HD
ATOM    153  H   UNK A   1     -12.255   9.651  10.301  1.00  0.00    +0.036 HD
ATOM    154  H   UNK A   1     -11.434  11.743   7.786  1.00  0.00    +0.084 HD
ATOM    155  H   UNK A   1      -8.998  12.160   7.287  1.00  0.00    +0.167 HD
ATOM    156  H   UNK A   1      -7.502  11.396   9.189  1.00  0.00    +0.104 HD
ATOM    157  H   UNK A   1     -16.163   8.422   8.166  1.00  0.00    +0.066 HD
ATOM    158  H   UNK A   1     -16.068   9.094  10.499  1.00  0.00    +0.039 HD
ATOM    159  H   UNK A   1     -17.599   9.533   9.745  1.00  0.00    +0.039 HD
ATOM    160  H   UNK A   1     -14.831  11.556   9.227  1.00  0.00    +0.159 HD
ATOM    161  H   UNK A   1     -16.043  12.253   8.741  1.00  0.00    +0.159 HD
ATOM    162  H   UNK A   1     -17.166  11.520   5.014  1.00  0.00    +0.066 HD
ATOM    163  H   UNK A   1     -19.202  13.132   5.491  1.00  0.00    +0.034 HD
ATOM    164  H   UNK A   1     -19.304  11.439   5.856  1.00  0.00    +0.034 HD
ATOM    165  H   UNK A   1     -19.686  10.623   8.035  1.00  0.00    +0.063 HD
ATOM    166  H   UNK A   1     -19.935  11.013  10.458  1.00  0.00    +0.066 HD
ATOM    167  H   UNK A   1     -18.404  12.758  11.731  1.00  0.00    +0.293 HD
ATOM    168  H   UNK A   1     -18.878  15.158   9.902  1.00  0.00    +0.066 HD
ATOM    169  H   UNK A   1     -18.647  14.758   7.464  1.00  0.00    +0.063 HD
ATOM    170  H   UNK A   1     -16.403  15.848   4.404  1.00  0.00    +0.067 HD
ATOM    171  H   UNK A   1     -14.486  16.288   3.155  1.00  0.00    +0.041 HD
ATOM    172  H   UNK A   1     -14.148  14.934   4.221  1.00  0.00    +0.041 HD
ATOM    173  H   UNK A   1     -19.074  14.240   1.612  1.00  0.00    +0.064 HD
ATOM    174  H   UNK A   1     -20.036  14.440   3.105  1.00  0.00    +0.064 HD
ATOM    175  H   UNK A   1     -18.934  16.908   1.503  1.00  0.00    +0.296 HD
ATOM    176  H   UNK A   1     -10.628  19.243   3.275  1.00  0.00    +0.063 HD
ATOM    177  H   UNK A   1     -10.338  19.831   0.938  1.00  0.00    +0.063 HD
ATOM    178  H   UNK A   1      -9.750  17.998  -1.554  1.00  0.00    +0.043 HD
ATOM    179  H   UNK A   1     -11.482  17.703  -1.927  1.00  0.00    +0.043 HD
ATOM    180  H   UNK A   1     -11.731  15.916  -0.226  1.00  0.00    +0.063 HD
ATOM    181  H   UNK A   1     -11.911  14.657   3.395  1.00  0.00    +0.058 HD
ATOM    182  H   UNK A   1     -11.132  17.770   4.992  1.00  0.00    +0.028 HD
ATOM    183  H   UNK A   1     -10.674  16.104   4.627  1.00  0.00    +0.028 HD
ATOM    184  H   UNK A   1     -12.389  16.597   4.667  1.00  0.00    +0.028 HD
ENDROOT
TORSDOF 0
ENDMDL
MODEL 3
REMARK VINA RESULT:      -4.4      1.991      2.316
REMARK  Generated by RDKit with Gasteiger charges
REMARK  --------------------------------------------------
ROOT
ATOM      1  N   UNK A   1     -21.072  16.570  -1.787  1.00  0.00    -0.131 N 
ATOM      2  C   UNK A   1     -20.306  16.591  -0.523  1.00  0.00    +0.121 C 
ATOM      3  C   UNK A   1     -19.497  17.888  -0.497  1.00  0.00    -0.037 C 
ATOM      4  C   UNK A   1     -21.303  16.581   0.658  1.00  0.00    +0.262 C 
ATOM      5  O   UNK A   1     -22.404  17.139   0.539  1.00  0.00    -0.271 OA
ATOM      6  N   UNK A   1     -20.802  16.124   1.817  1.00  0.00    -0.236 N 
ATOM      7  C   UNK A   1     -20.218  14.725   1.834  1.00  0.00    +0.143 C 
ATOM      8  C   UNK A   1     -18.742  14.688   2.396  1.00  0.00    +0.025 C 
ATOM      9  S   UNK A   1     -17.373  15.430   1.314  1.00  0.00    -0.154 S 
ATOM     10  C   UNK A   1     -21.232  13.783   2.654  1.00  0.00    +0.267 C 
ATOM     11  O   UNK A   1     -22.401  13.649   2.268  1.00  0.00    -0.270 OA
ATOM     12  N   UNK A   1     -20.678  13.221   3.743  1.00  0.00    -0.236 N 
ATOM     13  C   UNK A   1     -21.268  11.932   4.271  1.00  0.00    +0.136 C 
ATOM     14  C   UNK A   1     -21.207  10.790   3.197  1.00  0.00    -0.015 C 
ATOM     15  C   UNK A   1     -19.802  10.431   2.711  1.00  0.00    -0.060 C 
ATOM     16  C   UNK A   1     -21.980   9.531   3.603  1.00  0.00    -0.060 C 
ATOM     17  C   UNK A   1     -20.679  11.658   5.736  1.00  0.00    +0.267 C 
ATOM     18  O   UNK A   1     -20.881  12.491   6.631  1.00  0.00    -0.270 OA
ATOM     19  N   UNK A   1     -20.125  10.434   5.914  1.00  0.00    -0.236 N 
ATOM     20  C   UNK A   1     -18.998  10.363   6.935  1.00  0.00    +0.136 C 
ATOM     21  C   UNK A   1     -19.583  10.278   8.382  1.00  0.00    -0.015 C 
ATOM     22  C   UNK A   1     -18.592  10.791   9.430  1.00  0.00    -0.060 C 
ATOM     23  C   UNK A   1     -20.085   8.882   8.765  1.00  0.00    -0.060 C 
ATOM     24  C   UNK A   1     -17.972   9.160   6.655  1.00  0.00    +0.267 C 
ATOM     25  O   UNK A   1     -18.350   8.103   6.133  1.00  0.00    -0.270 OA
ATOM     26  N   UNK A   1     -16.753   9.353   7.241  1.00  0.00    -0.236 N 
ATOM     27  C   UNK A   1     -15.564   9.394   6.285  1.00  0.00    +0.137 C 
ATOM     28  C   UNK A   1     -15.049  10.875   6.030  1.00  0.00    -0.013 C 
ATOM     29  C   UNK A   1     -15.683  12.003   6.863  1.00  0.00    -0.060 C 
ATOM     30  C   UNK A   1     -15.029  11.246   4.524  1.00  0.00    -0.051 C 
ATOM     31  C   UNK A   1     -16.391  11.275   3.843  1.00  0.00    -0.065 C 
ATOM     32  C   UNK A   1     -14.274   8.545   6.730  1.00  0.00    +0.267 C 
ATOM     33  O   UNK A   1     -14.157   7.995   7.834  1.00  0.00    -0.270 OA
ATOM     34  N   UNK A   1     -13.391   8.421   5.705  1.00  0.00    -0.236 N 
ATOM     35  C   UNK A   1     -11.934   8.807   5.972  1.00  0.00    +0.138 C 
ATOM     36  C   UNK A   1     -11.179   7.589   6.560  1.00  0.00    +0.004 C 
ATOM     37  C   UNK A   1     -10.339   7.885   7.799  1.00  0.00    -0.045 C 
ATOM     38  C   UNK A   1     -10.876   7.673   9.077  1.00  0.00    -0.059 C 
ATOM     39  C   UNK A   1     -10.103   7.927  10.213  1.00  0.00    -0.062 C 
ATOM     40  C   UNK A   1      -8.795   8.398  10.076  1.00  0.00    -0.062 C 
ATOM     41  C   UNK A   1      -8.271   8.640   8.802  1.00  0.00    -0.062 C 
ATOM     42  C   UNK A   1      -9.041   8.388   7.665  1.00  0.00    -0.059 C 
ATOM     43  C   UNK A   1     -11.175   9.182   4.602  1.00  0.00    +0.267 C 
ATOM     44  O   UNK A   1     -11.416   8.539   3.569  1.00  0.00    -0.270 OA
ATOM     45  N   UNK A   1     -10.215  10.142   4.767  1.00  0.00    -0.235 N 
ATOM     46  C   UNK A   1      -9.474  10.572   3.506  1.00  0.00    +0.143 C 
ATOM     47  C   UNK A   1      -9.253  12.124   3.360  1.00  0.00    +0.027 C 
ATOM     48  S   UNK A   1     -10.694  13.344   3.390  1.00  0.00    -0.140 S 
ATOM     49  C   UNK A   1      -8.077   9.825   3.272  1.00  0.00    +0.267 C 
ATOM     50  O   UNK A   1      -8.011   8.948   2.398  1.00  0.00    -0.270 OA
ATOM     51  N   UNK A   1      -7.026  10.173   4.058  1.00  0.00    -0.239 N 
ATOM     52  C   UNK A   1      -6.032  11.101   3.419  1.00  0.00    +0.124 C 
ATOM     53  C   UNK A   1      -4.535  10.648   3.141  1.00  0.00    +0.263 C 
ATOM     54  O   UNK A   1      -3.973   9.738   3.757  1.00  0.00    -0.271 OA
ATOM     55  N   UNK A   1      -3.963  11.483   2.235  1.00  0.00    -0.236 N 
ATOM     56  C   UNK A   1      -2.688  11.073   1.571  1.00  0.00    +0.140 C 
ATOM     57  C   UNK A   1      -2.741   9.902   0.524  1.00  0.00    +0.023 C 
ATOM     58  C   UNK A   1      -4.029   9.180   0.279  1.00  0.00    +0.061 C 
ATOM     59  C   UNK A   1      -5.284   9.741   0.144  1.00  0.00    +0.024 C 
ATOM     60  N   UNK A   1      -6.126   8.749   0.568  1.00  0.00    -0.351 N 
ATOM     61  C   UNK A   1      -5.409   7.586   0.531  1.00  0.00    +0.092 C 
ATOM     62  N   UNK A   1      -4.128   7.786   0.290  1.00  0.00    -0.242 N 
ATOM     63  C   UNK A   1      -1.901  12.255   0.864  1.00  0.00    +0.267 C 
ATOM     64  O   UNK A   1      -0.655  12.247   0.911  1.00  0.00    -0.270 OA
ATOM     65  N   UNK A   1      -2.655  13.079   0.100  1.00  0.00    -0.235 N 
ATOM     66  C   UNK A   1      -2.020  14.360  -0.297  1.00  0.00    +0.143 C 
ATOM     67  C   UNK A   1      -1.245  14.208  -1.629  1.00  0.00    +0.058 C 
ATOM     68  C   UNK A   1      -2.027  13.872  -2.896  1.00  0.00    +0.220 C 
ATOM     69  O   UNK A   1      -1.495  13.885  -4.021  1.00  0.00    -0.275 OA
ATOM     70  N   UNK A   1      -3.340  13.538  -2.769  1.00  0.00    -0.370 N 
ATOM     71  C   UNK A   1      -2.859  15.684  -0.335  1.00  0.00    +0.267 C 
ATOM     72  O   UNK A   1      -2.307  16.728   0.046  1.00  0.00    -0.270 OA
ATOM     73  N   UNK A   1      -4.053  15.593  -0.961  1.00  0.00    -0.236 N 
ATOM     74  C   UNK A   1      -4.963  16.803  -0.861  1.00  0.00    +0.138 C 
ATOM     75  C   UNK A   1      -4.451  18.024  -1.690  1.00  0.00    +0.004 C 
ATOM     76  C   UNK A   1      -3.745  17.723  -3.006  1.00  0.00    -0.045 C 
ATOM     77  C   UNK A   1      -2.343  17.646  -3.036  1.00  0.00    -0.055 C 
ATOM     78  C   UNK A   1      -1.694  17.109  -4.144  1.00  0.00    -0.020 C 
ATOM     79  C   UNK A   1      -2.456  16.650  -5.218  1.00  0.00    +0.115 C 
ATOM     80  O   UNK A   1      -1.839  15.822  -6.127  1.00  0.00    -0.508 OA
ATOM     81  C   UNK A   1      -3.838  16.810  -5.260  1.00  0.00    -0.020 C 
ATOM     82  C   UNK A   1      -4.484  17.356  -4.147  1.00  0.00    -0.055 C 
ATOM     83  C   UNK A   1      -6.466  16.522  -1.289  1.00  0.00    +0.267 C 
ATOM     84  O   UNK A   1      -6.743  15.878  -2.311  1.00  0.00    -0.270 OA
ATOM     85  N   UNK A   1      -7.345  17.183  -0.486  1.00  0.00    -0.235 N 
ATOM     86  C   UNK A   1      -8.797  17.121  -0.890  1.00  0.00    +0.143 C 
ATOM     87  C   UNK A   1      -9.597  15.927  -0.239  1.00  0.00    +0.027 C 
ATOM     88  S   UNK A   1     -10.043  15.794   1.581  1.00  0.00    -0.140 S 
ATOM     89  C   UNK A   1      -9.479  18.537  -0.785  1.00  0.00    +0.267 C 
ATOM     90  O   UNK A   1     -10.439  18.825  -0.073  1.00  0.00    -0.270 OA
ATOM     91  N   UNK A   1      -9.015  19.418  -1.697  1.00  0.00    -0.238 N 
ATOM     92  C   UNK A   1      -8.339  20.569  -1.060  1.00  0.00    +0.140 C 
ATOM     93  C   UNK A   1      -9.096  21.828  -1.448  1.00  0.00    +0.325 C 
ATOM     94  O   UNK A   1      -8.638  22.972  -1.459  1.00  0.00    -0.250 OA
ATOM     95  O   UNK A   1     -10.398  21.567  -1.743  1.00  0.00    -0.480 OA
ATOM     96  C   UNK A   1     -13.822  13.107  -0.550  1.00  0.00    -0.059 C 
ATOM     97  C   UNK A   1     -14.892  13.646   0.176  1.00  0.00    -0.058 C 
ATOM     98  C   UNK A   1     -14.674  14.380   1.340  1.00  0.00    -0.038 C 
ATOM     99  C   UNK A   1     -15.843  14.847   2.217  1.00  0.00    +0.019 C 
ATOM    100  C   UNK A   1     -13.325  14.539   1.773  1.00  0.00    -0.053 C 
ATOM    101  C   UNK A   1     -12.210  13.961   1.076  1.00  0.00    -0.022 C 
ATOM    102  C   UNK A   1     -10.753  14.037   1.643  1.00  0.00    +0.076 C 
ATOM    103  C   UNK A   1     -12.487  13.241  -0.113  1.00  0.00    -0.046 C 
ATOM    104  C   UNK A   1     -11.400  12.568  -0.907  1.00  0.00    -0.039 C 
ATOM    105  H   UNK A   1     -19.648  15.721  -0.533  1.00  0.00    +0.060 HD
ATOM    106  H   UNK A   1     -18.988  18.012   0.464  1.00  0.00    +0.025 HD
ATOM    107  H   UNK A   1     -20.145  18.757  -0.641  1.00  0.00    +0.025 HD
ATOM    108  H   UNK A   1     -18.744  17.904  -1.287  1.00  0.00    +0.025 HD
ATOM    109  H   UNK A   1     -20.184  14.249   0.842  1.00  0.00    +0.067 HD
ATOM    110  H   UNK A   1     -18.680  15.200   3.363  1.00  0.00    +0.041 HD
ATOM    111  H   UNK A   1     -18.433  13.647   2.495  1.00  0.00    +0.041 HD
ATOM    112  H   UNK A   1     -22.341  12.090   4.468  1.00  0.00    +0.066 HD
ATOM    113  H   UNK A   1     -21.737  11.164   2.308  1.00  0.00    +0.032 HD
ATOM    114  H   UNK A   1     -19.230  11.325   2.448  1.00  0.00    +0.023 HD
ATOM    115  H   UNK A   1     -19.228   9.862   3.449  1.00  0.00    +0.023 HD
ATOM    116  H   UNK A   1     -19.867   9.808   1.809  1.00  0.00    +0.023 HD
ATOM    117  H   UNK A   1     -21.484   8.969   4.400  1.00  0.00    +0.023 HD
ATOM    118  H   UNK A   1     -22.981   9.791   3.973  1.00  0.00    +0.023 HD
ATOM    119  H   UNK A   1     -22.103   8.862   2.742  1.00  0.00    +0.023 HD
ATOM    120  H   UNK A   1     -18.415  11.286   6.838  1.00  0.00    +0.066 HD
ATOM    121  H   UNK A   1     -20.451  10.947   8.459  1.00  0.00    +0.032 HD
ATOM    122  H   UNK A   1     -18.193  11.767   9.134  1.00  0.00    +0.023 HD
ATOM    123  H   UNK A   1     -19.092  10.918  10.399  1.00  0.00    +0.023 HD
ATOM    124  H   UNK A   1     -17.756  10.106   9.583  1.00  0.00    +0.023 HD
ATOM    125  H   UNK A   1     -20.844   8.528   8.056  1.00  0.00    +0.023 HD
ATOM    126  H   UNK A   1     -20.548   8.895   9.759  1.00  0.00    +0.023 HD
ATOM    127  H   UNK A   1     -19.273   8.147   8.797  1.00  0.00    +0.023 HD
ATOM    128  H   UNK A   1     -15.865   8.930   5.338  1.00  0.00    +0.066 HD
ATOM    129  H   UNK A   1     -13.999  10.908   6.348  1.00  0.00    +0.033 HD
ATOM    130  H   UNK A   1     -15.057  12.902   6.828  1.00  0.00    +0.023 HD
ATOM    131  H   UNK A   1     -16.665  12.293   6.493  1.00  0.00    +0.023 HD
ATOM    132  H   UNK A   1     -15.754  11.716   7.920  1.00  0.00    +0.023 HD
ATOM    133  H   UNK A   1     -14.381  10.547   3.979  1.00  0.00    +0.027 HD
ATOM    134  H   UNK A   1     -14.561  12.234   4.413  1.00  0.00    +0.027 HD
ATOM    135  H   UNK A   1     -16.882  10.299   3.901  1.00  0.00    +0.023 HD
ATOM    136  H   UNK A   1     -16.278  11.515   2.780  1.00  0.00    +0.023 HD
ATOM    137  H   UNK A   1     -17.055  12.017   4.296  1.00  0.00    +0.023 HD
ATOM    138  H   UNK A   1     -11.883   9.675   6.642  1.00  0.00    +0.066 HD
ATOM    139  H   UNK A   1     -11.877   6.783   6.824  1.00  0.00    +0.034 HD
ATOM    140  H   UNK A   1     -10.518   7.131   5.811  1.00  0.00    +0.034 HD
ATOM    141  H   UNK A   1     -11.916   7.376   9.164  1.00  0.00    +0.063 HD
ATOM    142  H   UNK A   1     -10.551   7.811  11.190  1.00  0.00    +0.062 HD
ATOM    143  H   UNK A   1      -8.202   8.632  10.951  1.00  0.00    +0.062 HD
ATOM    144  H   UNK A   1      -7.282   9.072   8.664  1.00  0.00    +0.062 HD
ATOM    145  H   UNK A   1      -8.659   8.624   6.668  1.00  0.00    +0.063 HD
ATOM    146  H   UNK A   1     -10.069  10.316   2.616  1.00  0.00    +0.067 HD
ATOM    147  H   UNK A   1      -8.719  12.308   2.420  1.00  0.00    +0.041 HD
ATOM    148  H   UNK A   1      -8.595  12.472   4.167  1.00  0.00    +0.041 HD
ATOM    149  H   UNK A   1      -6.430  11.519   2.484  1.00  0.00    +0.062 HD
ATOM    150  H   UNK A   1      -5.920  11.959   4.103  1.00  0.00    +0.062 HD
ATOM    151  H   UNK A   1      -1.998  10.745   2.373  1.00  0.00    +0.066 HD
ATOM    152  H   UNK A   1      -2.042   9.126   0.895  1.00  0.00    +0.036 HD
ATOM    153  H   UNK A   1      -2.314  10.207  -0.442  1.00  0.00    +0.036 HD
ATOM    154  H   UNK A   1      -5.583  10.781   0.161  1.00  0.00    +0.084 HD
ATOM    155  H   UNK A   1      -7.008   8.907   1.063  1.00  0.00    +0.167 HD
ATOM    156  H   UNK A   1      -5.876   6.652   0.802  1.00  0.00    +0.104 HD
ATOM    157  H   UNK A   1      -1.251  14.613   0.450  1.00  0.00    +0.066 HD
ATOM    158  H   UNK A   1      -0.482  13.424  -1.526  1.00  0.00    +0.039 HD
ATOM    159  H   UNK A   1      -0.714  15.145  -1.834  1.00  0.00    +0.039 HD
ATOM    160  H   UNK A   1      -3.475  13.048  -1.857  1.00  0.00    +0.159 HD
ATOM    161  H   UNK A   1      -3.860  14.368  -2.405  1.00  0.00    +0.159 HD
ATOM    162  H   UNK A   1      -5.013  17.126   0.194  1.00  0.00    +0.066 HD
ATOM    163  H   UNK A   1      -5.267  18.734  -1.886  1.00  0.00    +0.034 HD
ATOM    164  H   UNK A   1      -3.751  18.586  -1.057  1.00  0.00    +0.034 HD
ATOM    165  H   UNK A   1      -1.783  17.836  -2.119  1.00  0.00    +0.063 HD
ATOM    166  H   UNK A   1      -0.634  16.896  -4.089  1.00  0.00    +0.066 HD
ATOM    167  H   UNK A   1      -1.760  15.004  -5.560  1.00  0.00    +0.293 HD
ATOM    168  H   UNK A   1      -4.435  16.390  -6.066  1.00  0.00    +0.066 HD
ATOM    169  H   UNK A   1      -5.578  17.353  -4.086  1.00  0.00    +0.063 HD
ATOM    170  H   UNK A   1      -8.881  16.910  -1.969  1.00  0.00    +0.067 HD
ATOM    171  H   UNK A   1     -10.567  15.853  -0.757  1.00  0.00    +0.041 HD
ATOM    172  H   UNK A   1      -9.063  14.993  -0.469  1.00  0.00    +0.041 HD
ATOM    173  H   UNK A   1      -8.321  20.538   0.040  1.00  0.00    +0.064 HD
ATOM    174  H   UNK A   1      -7.307  20.665  -1.427  1.00  0.00    +0.064 HD
ATOM    175  H   UNK A   1     -10.443  20.565  -1.587  1.00  0.00    +0.296 HD
ATOM    176  H   UNK A   1     -14.046  12.528  -1.443  1.00  0.00    +0.063 HD
ATOM    177  H   UNK A   1     -15.899  13.427  -0.157  1.00  0.00    +0.063 HD
ATOM    178  H   UNK A   1     -16.112  14.052   2.921  1.00  0.00    +0.043 HD
ATOM    179  H   UNK A   1     -15.508  15.737   2.768  1.00  0.00    +0.043 HD
ATOM    180  H   UNK A   1     -13.122  15.067   2.709  1.00  0.00    +0.063 HD
ATOM    181  H   UNK A   1     -10.081  13.427   1.039  1.00  0.00    +0.058 HD
ATOM    182  H   UNK A   1     -11.801  12.086  -1.806  1.00  0.00    +0.028 HD
ATOM    183  H   UNK A   1     -10.904  11.802  -0.311  1.00  0.00    +0.028 HD
ATOM    184  H   UNK A   1     -10.668  13.300  -1.253  1.00  0.00    +0.028 HD
ENDROOT
TORSDOF 0
ENDMDL
