MODEL 1
REMARK VINA RESULT:     144.3      0.000      0.000
REMARK  Generated by RDKit with Gasteiger charges
REMARK  --------------------------------------------------
ROOT
ATOM      1  N   UNK A   1      -1.144  23.763  -4.463  1.00  0.00    -0.131 N 
ATOM      2  C   UNK A   1      -2.118  22.765  -3.955  1.00  0.00    +0.121 C 
ATOM      3  C   UNK A   1      -2.877  23.436  -2.813  1.00  0.00    -0.037 C 
ATOM      4  C   UNK A   1      -3.084  22.395  -5.096  1.00  0.00    +0.262 C 
ATOM      5  O   UNK A   1      -3.358  23.250  -5.955  1.00  0.00    -0.271 OA
ATOM      6  N   UNK A   1      -3.644  21.173  -5.090  1.00  0.00    -0.236 N 
ATOM      7  C   UNK A   1      -3.411  20.188  -3.984  1.00  0.00    +0.143 C 
ATOM      8  C   UNK A   1      -4.604  19.196  -3.808  1.00  0.00    +0.025 C 
ATOM      9  S   UNK A   1      -6.224  19.851  -3.122  1.00  0.00    -0.154 S 
ATOM     10  C   UNK A   1      -2.041  19.407  -4.046  1.00  0.00    +0.267 C 
ATOM     11  O   UNK A   1      -1.258  19.555  -3.097  1.00  0.00    -0.270 OA
ATOM     12  N   UNK A   1      -1.715  18.747  -5.173  1.00  0.00    -0.233 N 
ATOM     13  C   UNK A   1      -2.327  17.379  -5.388  1.00  0.00    +0.160 C 
ATOM     14  C   UNK A   1      -3.108  17.464  -6.752  1.00  0.00    +0.083 C 
ATOM     15  C   UNK A   1      -2.246  17.502  -8.011  1.00  0.00    -0.036 C 
ATOM     16  O   UNK A   1      -4.084  16.427  -6.947  1.00  0.00    -0.391 OA
ATOM     17  C   UNK A   1      -1.250  16.216  -5.428  1.00  0.00    +0.269 C 
ATOM     18  O   UNK A   1      -0.280  16.256  -6.197  1.00  0.00    -0.270 OA
ATOM     19  N   UNK A   1      -1.432  15.210  -4.535  1.00  0.00    -0.236 N 
ATOM     20  C   UNK A   1      -2.533  14.214  -4.817  1.00  0.00    +0.136 C 
ATOM     21  C   UNK A   1      -2.307  13.500  -6.187  1.00  0.00    -0.015 C 
ATOM     22  C   UNK A   1      -1.110  12.545  -6.188  1.00  0.00    -0.060 C 
ATOM     23  C   UNK A   1      -3.559  12.766  -6.680  1.00  0.00    -0.060 C 
ATOM     24  C   UNK A   1      -2.700  13.152  -3.645  1.00  0.00    +0.267 C 
ATOM     25  O   UNK A   1      -1.733  12.689  -3.027  1.00  0.00    -0.270 OA
ATOM     26  N   UNK A   1      -3.995  12.783  -3.480  1.00  0.00    -0.236 N 
ATOM     27  C   UNK A   1      -4.406  12.335  -2.092  1.00  0.00    +0.134 C 
ATOM     28  C   UNK A   1      -4.229  13.526  -1.105  1.00  0.00    -0.020 C 
ATOM     29  C   UNK A   1      -3.861  13.170   0.347  1.00  0.00    -0.033 C 
ATOM     30  C   UNK A   1      -2.936  11.970   0.540  1.00  0.00    +0.018 C 
ATOM     31  N   UNK A   1      -1.650  12.152  -0.155  1.00  0.00    -0.357 N 
ATOM     32  C   UNK A   1      -0.821  11.097  -0.340  1.00  0.00    +0.185 C 
ATOM     33  N   UNK A   1      -0.280  10.440   0.636  1.00  0.00    -0.270 N 
ATOM     34  N   UNK A   1      -0.609  10.817  -1.647  1.00  0.00    -0.370 N 
ATOM     35  C   UNK A   1      -5.898  11.755  -2.021  1.00  0.00    +0.266 C 
ATOM     36  O   UNK A   1      -6.529  11.453  -3.038  1.00  0.00    -0.270 OA
ATOM     37  N   UNK A   1      -6.279  11.497  -0.739  1.00  0.00    -0.236 N 
ATOM     38  C   UNK A   1      -7.771  11.390  -0.455  1.00  0.00    +0.137 C 
ATOM     39  C   UNK A   1      -8.207   9.874  -0.378  1.00  0.00    -0.013 C 
ATOM     40  C   UNK A   1      -9.718   9.741  -0.117  1.00  0.00    -0.060 C 
ATOM     41  C   UNK A   1      -7.816   9.066  -1.642  1.00  0.00    -0.051 C 
ATOM     42  C   UNK A   1      -8.181   7.586  -1.593  1.00  0.00    -0.065 C 
ATOM     43  C   UNK A   1      -8.103  12.068   0.977  1.00  0.00    +0.267 C 
ATOM     44  O   UNK A   1      -7.373  11.863   1.955  1.00  0.00    -0.270 OA
ATOM     45  N   UNK A   1      -9.299  12.729   0.983  1.00  0.00    -0.235 N 
ATOM     46  C   UNK A   1      -9.534  13.690   2.154  1.00  0.00    +0.143 C 
ATOM     47  C   UNK A   1      -8.839  15.060   1.827  1.00  0.00    +0.026 C 
ATOM     48  S   UNK A   1      -8.311  15.963   3.357  1.00  0.00    -0.142 S 
ATOM     49  C   UNK A   1     -11.106  13.822   2.554  1.00  0.00    +0.267 C 
ATOM     50  O   UNK A   1     -11.851  12.835   2.603  1.00  0.00    -0.270 OA
ATOM     51  N   UNK A   1     -11.449  15.084   2.908  1.00  0.00    -0.234 N 
ATOM     52  C   UNK A   1     -12.646  15.331   3.801  1.00  0.00    +0.157 C 
ATOM     53  C   UNK A   1     -12.365  14.813   5.232  1.00  0.00    +0.075 C 
ATOM     54  O   UNK A   1     -10.988  14.943   5.613  1.00  0.00    -0.394 OA
ATOM     55  C   UNK A   1     -13.139  16.861   3.699  1.00  0.00    +0.269 C 
ATOM     56  O   UNK A   1     -13.336  17.364   2.585  1.00  0.00    -0.270 OA
ATOM     57  N   UNK A   1     -13.521  17.462   4.856  1.00  0.00    -0.236 N 
ATOM     58  C   UNK A   1     -12.642  18.575   5.398  1.00  0.00    +0.135 C 
ATOM     59  C   UNK A   1     -11.666  19.259   4.354  1.00  0.00    -0.014 C 
ATOM     60  C   UNK A   1     -10.351  18.450   4.177  1.00  0.00    -0.022 C 
ATOM     61  S   UNK A   1      -9.343  18.763   2.701  1.00  0.00    -0.241 S 
ATOM     62  C   UNK A   1     -10.356  18.312   1.322  1.00  0.00    -0.036 C 
ATOM     63  C   UNK A   1     -13.270  19.632   6.473  1.00  0.00    +0.266 C 
ATOM     64  O   UNK A   1     -12.526  19.996   7.399  1.00  0.00    -0.270 OA
ATOM     65  N   UNK A   1     -14.520  20.114   6.251  1.00  0.00    -0.236 N 
ATOM     66  C   UNK A   1     -15.473  20.386   7.445  1.00  0.00    +0.138 C 
ATOM     67  C   UNK A   1     -15.268  19.444   8.663  1.00  0.00    +0.004 C 
ATOM     68  C   UNK A   1     -16.147  18.202   8.647  1.00  0.00    -0.045 C 
ATOM     69  C   UNK A   1     -15.751  17.070   7.928  1.00  0.00    -0.059 C 
ATOM     70  C   UNK A   1     -16.554  15.931   7.897  1.00  0.00    -0.062 C 
ATOM     71  C   UNK A   1     -17.768  15.916   8.583  1.00  0.00    -0.062 C 
ATOM     72  C   UNK A   1     -18.183  17.046   9.287  1.00  0.00    -0.062 C 
ATOM     73  C   UNK A   1     -17.379  18.188   9.311  1.00  0.00    -0.059 C 
ATOM     74  C   UNK A   1     -15.756  21.876   7.983  1.00  0.00    +0.267 C 
ATOM     75  O   UNK A   1     -14.926  22.785   7.900  1.00  0.00    -0.270 OA
ATOM     76  N   UNK A   1     -17.003  21.989   8.554  1.00  0.00    -0.236 N 
ATOM     77  C   UNK A   1     -17.382  23.335   9.161  1.00  0.00    +0.138 C 
ATOM     78  C   UNK A   1     -17.541  24.409   8.042  1.00  0.00    +0.004 C 
ATOM     79  C   UNK A   1     -17.452  25.851   8.527  1.00  0.00    -0.045 C 
ATOM     80  C   UNK A   1     -16.223  26.526   8.543  1.00  0.00    -0.055 C 
ATOM     81  C   UNK A   1     -16.128  27.815   9.076  1.00  0.00    -0.020 C 
ATOM     82  C   UNK A   1     -17.257  28.402   9.641  1.00  0.00    +0.115 C 
ATOM     83  O   UNK A   1     -17.137  29.602  10.289  1.00  0.00    -0.508 OA
ATOM     84  C   UNK A   1     -18.486  27.754   9.624  1.00  0.00    -0.020 C 
ATOM     85  C   UNK A   1     -18.586  26.492   9.042  1.00  0.00    -0.055 C 
ATOM     86  C   UNK A   1     -18.784  23.258   9.938  1.00  0.00    +0.267 C 
ATOM     87  O   UNK A   1     -19.755  22.647   9.479  1.00  0.00    -0.270 OA
ATOM     88  N   UNK A   1     -18.816  24.028  11.066  1.00  0.00    -0.235 N 
ATOM     89  C   UNK A   1     -20.191  24.275  11.618  1.00  0.00    +0.143 C 
ATOM     90  C   UNK A   1     -20.629  23.075  12.487  1.00  0.00    +0.022 C 
ATOM     91  S   UNK A   1     -22.395  23.148  13.022  1.00  0.00    -0.177 S 
ATOM     92  C   UNK A   1     -20.211  25.565  12.507  1.00  0.00    +0.267 C 
ATOM     93  O   UNK A   1     -19.401  25.819  13.400  1.00  0.00    -0.270 OA
ATOM     94  N   UNK A   1     -21.259  26.368  12.229  1.00  0.00    -0.238 N 
ATOM     95  C   UNK A   1     -21.767  27.125  13.379  1.00  0.00    +0.140 C 
ATOM     96  C   UNK A   1     -21.066  28.435  13.658  1.00  0.00    +0.325 C 
ATOM     97  O   UNK A   1     -21.644  29.423  14.113  1.00  0.00    -0.250 OA
ATOM     98  O   UNK A   1     -19.729  28.419  13.471  1.00  0.00    -0.480 OA
ATOM     99  C   UNK A   1      -4.659  17.206   0.652  1.00  0.00    -0.059 C 
ATOM    100  C   UNK A   1      -4.776  18.163  -0.342  1.00  0.00    -0.058 C 
ATOM    101  C   UNK A   1      -5.885  19.001  -0.380  1.00  0.00    -0.038 C 
ATOM    102  C   UNK A   1      -5.861  20.159  -1.364  1.00  0.00    +0.019 C 
ATOM    103  C   UNK A   1      -6.918  18.804   0.594  1.00  0.00    -0.053 C 
ATOM    104  C   UNK A   1      -6.842  17.819   1.630  1.00  0.00    -0.023 C 
ATOM    105  C   UNK A   1      -7.922  17.645   2.749  1.00  0.00    +0.058 C 
ATOM    106  C   UNK A   1      -5.630  17.060   1.664  1.00  0.00    -0.046 C 
ATOM    107  C   UNK A   1      -5.281  16.043   2.722  1.00  0.00    -0.039 C 
ATOM    108  H   UNK A   1      -1.527  21.925  -3.601  1.00  0.00    +0.060 HD
ATOM    109  H   UNK A   1      -3.406  24.332  -3.157  1.00  0.00    +0.025 HD
ATOM    110  H   UNK A   1      -2.197  23.737  -2.007  1.00  0.00    +0.025 HD
ATOM    111  H   UNK A   1      -3.631  22.771  -2.379  1.00  0.00    +0.025 HD
ATOM    112  H   UNK A   1      -3.370  20.704  -3.019  1.00  0.00    +0.067 HD
ATOM    113  H   UNK A   1      -4.316  18.344  -3.190  1.00  0.00    +0.041 HD
ATOM    114  H   UNK A   1      -4.878  18.788  -4.786  1.00  0.00    +0.041 HD
ATOM    115  H   UNK A   1      -3.041  17.127  -4.596  1.00  0.00    +0.069 HD
ATOM    116  H   UNK A   1      -3.695  18.392  -6.746  1.00  0.00    +0.063 HD
ATOM    117  H   UNK A   1      -1.460  18.260  -7.954  1.00  0.00    +0.026 HD
ATOM    118  H   UNK A   1      -1.796  16.527  -8.222  1.00  0.00    +0.026 HD
ATOM    119  H   UNK A   1      -2.874  17.732  -8.880  1.00  0.00    +0.026 HD
ATOM    120  H   UNK A   1      -4.190  16.043  -6.053  1.00  0.00    +0.211 HD
ATOM    121  H   UNK A   1      -3.483  14.756  -4.844  1.00  0.00    +0.066 HD
ATOM    122  H   UNK A   1      -2.101  14.266  -6.945  1.00  0.00    +0.032 HD
ATOM    123  H   UNK A   1      -0.925  12.161  -7.198  1.00  0.00    +0.023 HD
ATOM    124  H   UNK A   1      -1.277  11.682  -5.535  1.00  0.00    +0.023 HD
ATOM    125  H   UNK A   1      -0.195  13.048  -5.864  1.00  0.00    +0.023 HD
ATOM    126  H   UNK A   1      -3.421  12.433  -7.715  1.00  0.00    +0.023 HD
ATOM    127  H   UNK A   1      -3.770  11.874  -6.082  1.00  0.00    +0.023 HD
ATOM    128  H   UNK A   1      -4.435  13.421  -6.653  1.00  0.00    +0.023 HD
ATOM    129  H   UNK A   1      -3.771  11.484  -1.826  1.00  0.00    +0.066 HD
ATOM    130  H   UNK A   1      -3.446  14.212  -1.458  1.00  0.00    +0.029 HD
ATOM    131  H   UNK A   1      -5.143  14.135  -1.090  1.00  0.00    +0.029 HD
ATOM    132  H   UNK A   1      -3.392  14.055   0.799  1.00  0.00    +0.029 HD
ATOM    133  H   UNK A   1      -4.776  12.997   0.924  1.00  0.00    +0.029 HD
ATOM    134  H   UNK A   1      -2.736  11.860   1.611  1.00  0.00    +0.049 HD
ATOM    135  H   UNK A   1      -3.419  11.042   0.220  1.00  0.00    +0.049 HD
ATOM    136  H   UNK A   1      -1.873  12.616  -1.056  1.00  0.00    +0.163 HD
ATOM    137  H   UNK A   1      -0.653  10.934   1.454  1.00  0.00    +0.191 HD
ATOM    138  H   UNK A   1      -0.493  11.715  -2.153  1.00  0.00    +0.159 HD
ATOM    139  H   UNK A   1      -1.537  10.665  -2.066  1.00  0.00    +0.159 HD
ATOM    140  H   UNK A   1      -8.360  11.911  -1.222  1.00  0.00    +0.066 HD
ATOM    141  H   UNK A   1      -7.691   9.417   0.477  1.00  0.00    +0.033 HD
ATOM    142  H   UNK A   1     -10.006  10.187   0.839  1.00  0.00    +0.023 HD
ATOM    143  H   UNK A   1     -10.028   8.694  -0.052  1.00  0.00    +0.023 HD
ATOM    144  H   UNK A   1     -10.299  10.221  -0.912  1.00  0.00    +0.023 HD
ATOM    145  H   UNK A   1      -8.280   9.514  -2.529  1.00  0.00    +0.027 HD
ATOM    146  H   UNK A   1      -6.731   9.110  -1.781  1.00  0.00    +0.027 HD
ATOM    147  H   UNK A   1      -9.262   7.433  -1.664  1.00  0.00    +0.023 HD
ATOM    148  H   UNK A   1      -7.815   7.118  -0.672  1.00  0.00    +0.023 HD
ATOM    149  H   UNK A   1      -7.726   7.063  -2.442  1.00  0.00    +0.023 HD
ATOM    150  H   UNK A   1      -9.081  13.273   3.066  1.00  0.00    +0.067 HD
ATOM    151  H   UNK A   1      -9.495  15.690   1.221  1.00  0.00    +0.041 HD
ATOM    152  H   UNK A   1      -7.928  14.892   1.246  1.00  0.00    +0.041 HD
ATOM    153  H   UNK A   1     -13.525  14.779   3.433  1.00  0.00    +0.068 HD
ATOM    154  H   UNK A   1     -12.984  15.278   6.002  1.00  0.00    +0.059 HD
ATOM    155  H   UNK A   1     -12.582  13.739   5.264  1.00  0.00    +0.059 HD
ATOM    156  H   UNK A   1     -10.581  15.136   4.729  1.00  0.00    +0.210 HD
ATOM    157  H   UNK A   1     -11.958  18.032   6.077  1.00  0.00    +0.066 HD
ATOM    158  H   UNK A   1     -11.393  20.258   4.712  1.00  0.00    +0.030 HD
ATOM    159  H   UNK A   1     -12.168  19.415   3.395  1.00  0.00    +0.030 HD
ATOM    160  H   UNK A   1     -10.575  17.387   4.166  1.00  0.00    +0.036 HD
ATOM    161  H   UNK A   1      -9.691  18.641   5.032  1.00  0.00    +0.036 HD
ATOM    162  H   UNK A   1      -8.962  20.057   2.649  1.00  0.00    +0.084 HD
ATOM    163  H   UNK A   1      -9.726  18.056   0.474  1.00  0.00    +0.033 HD
ATOM    164  H   UNK A   1     -10.982  17.466   1.588  1.00  0.00    +0.033 HD
ATOM    165  H   UNK A   1     -10.978  19.176   1.067  1.00  0.00    +0.033 HD
ATOM    166  H   UNK A   1     -16.454  20.124   7.009  1.00  0.00    +0.066 HD
ATOM    167  H   UNK A   1     -14.234  19.110   8.787  1.00  0.00    +0.034 HD
ATOM    168  H   UNK A   1     -15.475  19.977   9.601  1.00  0.00    +0.034 HD
ATOM    169  H   UNK A   1     -14.825  17.110   7.344  1.00  0.00    +0.063 HD
ATOM    170  H   UNK A   1     -16.225  15.089   7.295  1.00  0.00    +0.062 HD
ATOM    171  H   UNK A   1     -18.400  15.038   8.530  1.00  0.00    +0.062 HD
ATOM    172  H   UNK A   1     -19.143  17.071   9.788  1.00  0.00    +0.062 HD
ATOM    173  H   UNK A   1     -17.713  19.101   9.804  1.00  0.00    +0.063 HD
ATOM    174  H   UNK A   1     -16.610  23.638   9.884  1.00  0.00    +0.066 HD
ATOM    175  H   UNK A   1     -16.793  24.287   7.252  1.00  0.00    +0.034 HD
ATOM    176  H   UNK A   1     -18.505  24.278   7.529  1.00  0.00    +0.034 HD
ATOM    177  H   UNK A   1     -15.337  26.002   8.184  1.00  0.00    +0.063 HD
ATOM    178  H   UNK A   1     -15.167  28.310   9.110  1.00  0.00    +0.066 HD
ATOM    179  H   UNK A   1     -17.753  29.501  11.041  1.00  0.00    +0.293 HD
ATOM    180  H   UNK A   1     -19.367  28.168  10.105  1.00  0.00    +0.066 HD
ATOM    181  H   UNK A   1     -19.527  25.945   9.087  1.00  0.00    +0.063 HD
ATOM    182  H   UNK A   1     -20.911  24.420  10.798  1.00  0.00    +0.067 HD
ATOM    183  H   UNK A   1     -20.024  23.024  13.399  1.00  0.00    +0.041 HD
ATOM    184  H   UNK A   1     -20.497  22.123  11.962  1.00  0.00    +0.041 HD
ATOM    185  H   UNK A   1     -22.504  24.464  12.761  1.00  0.00    +0.102 HD
ATOM    186  H   UNK A   1     -21.774  26.546  14.313  1.00  0.00    +0.064 HD
ATOM    187  H   UNK A   1     -22.817  27.384  13.183  1.00  0.00    +0.064 HD
ATOM    188  H   UNK A   1     -19.502  27.483  13.187  1.00  0.00    +0.296 HD
ATOM    189  H   UNK A   1      -3.784  16.560   0.632  1.00  0.00    +0.063 HD
ATOM    190  H   UNK A   1      -3.970  18.254  -1.068  1.00  0.00    +0.063 HD
ATOM    191  H   UNK A   1      -4.906  20.687  -1.279  1.00  0.00    +0.043 HD
ATOM    192  H   UNK A   1      -6.611  20.888  -1.032  1.00  0.00    +0.043 HD
ATOM    193  H   UNK A   1      -7.787  19.457   0.550  1.00  0.00    +0.063 HD
ATOM    194  H   UNK A   1      -7.402  18.078   3.618  1.00  0.00    +0.057 HD
ATOM    195  H   UNK A   1      -5.556  16.395   3.721  1.00  0.00    +0.028 HD
ATOM    196  H   UNK A   1      -4.198  15.883   2.769  1.00  0.00    +0.028 HD
ATOM    197  H   UNK A   1      -5.735  15.073   2.499  1.00  0.00    +0.028 HD
ENDROOT
TORSDOF 0
ENDMDL
