REMARK  Generated by RDKit with Gasteiger charges
REMARK  --------------------------------------------------
ROOT
ATOM      1  N   UNK A   1      10.195  -8.685  -1.073  1.00  0.00    -0.131 N 
ATOM      2  C   UNK A   1       9.071  -7.729  -1.231  1.00  0.00    +0.121 C 
ATOM      3  C   UNK A   1       8.300  -8.157  -2.476  1.00  0.00    -0.037 C 
ATOM      4  C   UNK A   1       8.177  -7.830   0.022  1.00  0.00    +0.262 C 
ATOM      5  O   UNK A   1       8.009  -8.939   0.556  1.00  0.00    -0.271 OA
ATOM      6  N   UNK A   1       7.601  -6.709   0.486  1.00  0.00    -0.236 N 
ATOM      7  C   UNK A   1       7.500  -5.480  -0.374  1.00  0.00    +0.143 C 
ATOM      8  C   UNK A   1       6.287  -4.570   0.036  1.00  0.00    +0.025 C 
ATOM      9  S   UNK A   1       4.560  -5.274  -0.163  1.00  0.00    -0.154 S 
ATOM     10  C   UNK A   1       8.778  -4.579  -0.206  1.00  0.00    +0.267 C 
ATOM     11  O   UNK A   1       9.296  -4.389   0.898  1.00  0.00    -0.270 OA
ATOM     12  N   UNK A   1       9.201  -4.071  -1.382  1.00  0.00    -0.235 N 
ATOM     13  C   UNK A   1       9.851  -2.710  -1.310  1.00  0.00    +0.143 C 
ATOM     14  C   UNK A   1      11.281  -2.807  -0.705  1.00  0.00    +0.058 C 
ATOM     15  C   UNK A   1      11.525  -2.148   0.650  1.00  0.00    +0.220 C 
ATOM     16  O   UNK A   1      12.653  -1.777   1.004  1.00  0.00    -0.275 OA
ATOM     17  N   UNK A   1      10.468  -2.108   1.524  1.00  0.00    -0.370 N 
ATOM     18  C   UNK A   1      10.017  -2.111  -2.759  1.00  0.00    +0.267 C 
ATOM     19  O   UNK A   1      10.872  -2.577  -3.528  1.00  0.00    -0.270 OA
ATOM     20  N   UNK A   1       9.193  -1.102  -3.118  1.00  0.00    -0.236 N 
ATOM     21  C   UNK A   1       9.127   0.150  -2.286  1.00  0.00    +0.134 C 
ATOM     22  C   UNK A   1      10.547   0.743  -2.117  1.00  0.00    -0.020 C 
ATOM     23  C   UNK A   1      10.671   2.078  -1.375  1.00  0.00    -0.033 C 
ATOM     24  C   UNK A   1      10.043   2.097   0.024  1.00  0.00    +0.018 C 
ATOM     25  N   UNK A   1       8.797   2.839   0.044  1.00  0.00    -0.357 N 
ATOM     26  C   UNK A   1       8.748   4.163  -0.213  1.00  0.00    +0.185 C 
ATOM     27  N   UNK A   1       9.585   5.077   0.167  1.00  0.00    -0.270 N 
ATOM     28  N   UNK A   1       7.700   4.520  -0.990  1.00  0.00    -0.370 N 
ATOM     29  C   UNK A   1       8.194   1.226  -2.997  1.00  0.00    +0.266 C 
ATOM     30  O   UNK A   1       8.415   1.631  -4.143  1.00  0.00    -0.270 OA
ATOM     31  N   UNK A   1       7.296   1.773  -2.140  1.00  0.00    -0.239 N 
ATOM     32  C   UNK A   1       5.899   1.888  -2.680  1.00  0.00    +0.124 C 
ATOM     33  C   UNK A   1       4.882   2.652  -1.748  1.00  0.00    +0.263 C 
ATOM     34  O   UNK A   1       5.282   3.366  -0.819  1.00  0.00    -0.271 OA
ATOM     35  N   UNK A   1       3.600   2.474  -2.163  1.00  0.00    -0.236 N 
ATOM     36  C   UNK A   1       2.487   3.018  -1.266  1.00  0.00    +0.138 C 
ATOM     37  C   UNK A   1       2.428   4.575  -1.408  1.00  0.00    +0.006 C 
ATOM     38  C   UNK A   1       1.613   5.240  -0.331  1.00  0.00    -0.020 C 
ATOM     39  C   UNK A   1       0.235   5.323  -0.344  1.00  0.00    +0.005 C 
ATOM     40  N   UNK A   1      -0.157   5.428   0.965  1.00  0.00    -0.361 N 
ATOM     41  C   UNK A   1       0.901   5.879   1.732  1.00  0.00    +0.046 C 
ATOM     42  C   UNK A   1       0.958   6.236   3.085  1.00  0.00    -0.038 C 
ATOM     43  C   UNK A   1       2.221   6.476   3.639  1.00  0.00    -0.060 C 
ATOM     44  C   UNK A   1       3.381   6.332   2.879  1.00  0.00    -0.062 C 
ATOM     45  C   UNK A   1       3.305   5.943   1.535  1.00  0.00    -0.053 C 
ATOM     46  C   UNK A   1       2.043   5.733   0.940  1.00  0.00    +0.003 C 
ATOM     47  C   UNK A   1       1.015   2.433  -1.650  1.00  0.00    +0.267 C 
ATOM     48  O   UNK A   1       0.652   2.375  -2.830  1.00  0.00    -0.270 OA
ATOM     49  N   UNK A   1       0.267   2.132  -0.548  1.00  0.00    -0.235 N 
ATOM     50  C   UNK A   1      -1.220   1.768  -0.715  1.00  0.00    +0.143 C 
ATOM     51  C   UNK A   1      -1.454   0.242  -0.358  1.00  0.00    +0.027 C 
ATOM     52  S   UNK A   1      -1.185  -0.975  -1.753  1.00  0.00    -0.140 S 
ATOM     53  C   UNK A   1      -2.148   2.647   0.305  1.00  0.00    +0.267 C 
ATOM     54  O   UNK A   1      -1.707   3.086   1.373  1.00  0.00    -0.270 OA
ATOM     55  N   UNK A   1      -3.429   2.832  -0.145  1.00  0.00    -0.236 N 
ATOM     56  C   UNK A   1      -4.415   3.385   0.869  1.00  0.00    +0.134 C 
ATOM     57  C   UNK A   1      -4.142   4.885   1.187  1.00  0.00    -0.021 C 
ATOM     58  C   UNK A   1      -3.976   5.777  -0.055  1.00  0.00    -0.050 C 
ATOM     59  C   UNK A   1      -4.482   7.212   0.136  1.00  0.00    -0.041 C 
ATOM     60  C   UNK A   1      -5.997   7.252   0.339  1.00  0.00    -0.008 C 
ATOM     61  N   UNK A   1      -6.558   8.598   0.048  1.00  0.00    -0.330 N 
ATOM     62  C   UNK A   1      -5.977   3.307   0.507  1.00  0.00    +0.266 C 
ATOM     63  O   UNK A   1      -6.427   3.729  -0.564  1.00  0.00    -0.270 OA
ATOM     64  N   UNK A   1      -6.703   2.919   1.586  1.00  0.00    -0.236 N 
ATOM     65  C   UNK A   1      -8.200   3.027   1.603  1.00  0.00    +0.138 C 
ATOM     66  C   UNK A   1      -8.686   4.422   1.121  1.00  0.00    +0.004 C 
ATOM     67  C   UNK A   1      -9.801   5.030   1.965  1.00  0.00    -0.045 C 
ATOM     68  C   UNK A   1     -11.143   4.751   1.694  1.00  0.00    -0.059 C 
ATOM     69  C   UNK A   1     -12.157   5.294   2.483  1.00  0.00    -0.062 C 
ATOM     70  C   UNK A   1     -11.837   6.121   3.561  1.00  0.00    -0.062 C 
ATOM     71  C   UNK A   1     -10.501   6.401   3.846  1.00  0.00    -0.062 C 
ATOM     72  C   UNK A   1      -9.489   5.856   3.054  1.00  0.00    -0.059 C 
ATOM     73  C   UNK A   1      -9.061   1.872   0.977  1.00  0.00    +0.267 C 
ATOM     74  O   UNK A   1      -9.961   2.095   0.156  1.00  0.00    -0.270 OA
ATOM     75  N   UNK A   1      -8.867   0.670   1.565  1.00  0.00    -0.236 N 
ATOM     76  C   UNK A   1      -8.582  -0.412   0.578  1.00  0.00    +0.130 C 
ATOM     77  C   UNK A   1      -7.273  -0.135  -0.184  1.00  0.00    -0.033 C 
ATOM     78  C   UNK A   1      -8.462  -1.827   1.232  1.00  0.00    +0.247 C 
ATOM     79  O   UNK A   1      -8.670  -2.089   2.423  1.00  0.00    -0.272 OA
ATOM     80  N   UNK A   1      -8.222  -2.866   0.294  1.00  0.00    -0.329 N 
ATOM     81  C   UNK A   1      -9.342  -3.183  -0.558  1.00  0.00    +0.021 C 
ATOM     82  C   UNK A   1      -9.879  -4.525  -0.044  1.00  0.00    -0.033 C 
ATOM     83  C   UNK A   1      -8.891  -4.976   1.038  1.00  0.00    -0.022 C 
ATOM     84  C   UNK A   1      -7.636  -4.137   0.757  1.00  0.00    +0.113 C 
ATOM     85  C   UNK A   1      -6.791  -4.912  -0.329  1.00  0.00    +0.264 C 
ATOM     86  O   UNK A   1      -7.259  -5.151  -1.446  1.00  0.00    -0.271 OA
ATOM     87  N   UNK A   1      -5.618  -5.344   0.171  1.00  0.00    -0.235 N 
ATOM     88  C   UNK A   1      -4.555  -5.613  -0.861  1.00  0.00    +0.143 C 
ATOM     89  C   UNK A   1      -3.165  -4.946  -0.533  1.00  0.00    +0.027 C 
ATOM     90  S   UNK A   1      -3.139  -3.082  -0.606  1.00  0.00    -0.140 S 
ATOM     91  C   UNK A   1      -4.375  -7.158  -1.065  1.00  0.00    +0.267 C 
ATOM     92  O   UNK A   1      -4.254  -7.642  -2.194  1.00  0.00    -0.270 OA
ATOM     93  N   UNK A   1      -4.330  -7.858   0.085  1.00  0.00    -0.238 N 
ATOM     94  C   UNK A   1      -4.778  -9.249  -0.030  1.00  0.00    +0.140 C 
ATOM     95  C   UNK A   1      -6.198  -9.384   0.486  1.00  0.00    +0.325 C 
ATOM     96  O   UNK A   1      -6.793 -10.459   0.578  1.00  0.00    -0.250 OA
ATOM     97  O   UNK A   1      -6.755  -8.219   0.883  1.00  0.00    -0.480 OA
ATOM     98  C   UNK A   1       0.809  -3.512   2.151  1.00  0.00    -0.059 C 
ATOM     99  C   UNK A   1       2.047  -3.784   1.556  1.00  0.00    -0.058 C 
ATOM    100  C   UNK A   1       2.211  -3.660   0.177  1.00  0.00    -0.038 C 
ATOM    101  C   UNK A   1       3.610  -3.704  -0.443  1.00  0.00    +0.019 C 
ATOM    102  C   UNK A   1       1.065  -3.309  -0.581  1.00  0.00    -0.053 C 
ATOM    103  C   UNK A   1      -0.226  -3.048  -0.005  1.00  0.00    -0.022 C 
ATOM    104  C   UNK A   1      -1.370  -2.664  -0.971  1.00  0.00    +0.076 C 
ATOM    105  C   UNK A   1      -0.317  -3.101   1.400  1.00  0.00    -0.046 C 
ATOM    106  C   UNK A   1      -1.551  -2.715   2.170  1.00  0.00    -0.039 C 
ATOM    107  H   UNK A   1       9.526  -6.752  -1.362  1.00  0.00    +0.060 HD
ATOM    108  H   UNK A   1       7.434  -7.513  -2.659  1.00  0.00    +0.025 HD
ATOM    109  H   UNK A   1       7.918  -9.180  -2.380  1.00  0.00    +0.025 HD
ATOM    110  H   UNK A   1       8.937  -8.118  -3.365  1.00  0.00    +0.025 HD
ATOM    111  H   UNK A   1       7.357  -5.718  -1.433  1.00  0.00    +0.067 HD
ATOM    112  H   UNK A   1       6.377  -4.285   1.091  1.00  0.00    +0.041 HD
ATOM    113  H   UNK A   1       6.329  -3.647  -0.556  1.00  0.00    +0.041 HD
ATOM    114  H   UNK A   1       9.218  -2.032  -0.732  1.00  0.00    +0.066 HD
ATOM    115  H   UNK A   1      11.598  -3.853  -0.605  1.00  0.00    +0.039 HD
ATOM    116  H   UNK A   1      12.008  -2.329  -1.373  1.00  0.00    +0.039 HD
ATOM    117  H   UNK A   1       9.710  -1.558   1.120  1.00  0.00    +0.159 HD
ATOM    118  H   UNK A   1       9.975  -3.019   1.442  1.00  0.00    +0.159 HD
ATOM    119  H   UNK A   1       8.694  -0.067  -1.302  1.00  0.00    +0.066 HD
ATOM    120  H   UNK A   1      11.008   0.869  -3.106  1.00  0.00    +0.029 HD
ATOM    121  H   UNK A   1      11.177   0.018  -1.585  1.00  0.00    +0.029 HD
ATOM    122  H   UNK A   1      10.292   2.888  -2.009  1.00  0.00    +0.029 HD
ATOM    123  H   UNK A   1      11.747   2.271  -1.258  1.00  0.00    +0.029 HD
ATOM    124  H   UNK A   1       9.865   1.081   0.394  1.00  0.00    +0.049 HD
ATOM    125  H   UNK A   1      10.739   2.563   0.733  1.00  0.00    +0.049 HD
ATOM    126  H   UNK A   1       8.092   2.318  -0.524  1.00  0.00    +0.163 HD
ATOM    127  H   UNK A   1       9.150   5.897  -0.272  1.00  0.00    +0.191 HD
ATOM    128  H   UNK A   1       7.646   3.839  -1.779  1.00  0.00    +0.159 HD
ATOM    129  H   UNK A   1       6.810   4.145  -0.593  1.00  0.00    +0.159 HD
ATOM    130  H   UNK A   1       5.492   0.881  -2.845  1.00  0.00    +0.062 HD
ATOM    131  H   UNK A   1       5.890   2.415  -3.644  1.00  0.00    +0.062 HD
ATOM    132  H   UNK A   1       2.688   2.742  -0.221  1.00  0.00    +0.066 HD
ATOM    133  H   UNK A   1       2.015   4.840  -2.390  1.00  0.00    +0.034 HD
ATOM    134  H   UNK A   1       3.437   5.010  -1.392  1.00  0.00    +0.034 HD
ATOM    135  H   UNK A   1      -0.467   4.936  -1.075  1.00  0.00    +0.082 HD
ATOM    136  H   UNK A   1      -1.001   4.977   1.309  1.00  0.00    +0.166 HD
ATOM    137  H   UNK A   1       0.056   6.242   3.685  1.00  0.00    +0.064 HD
ATOM    138  H   UNK A   1       2.299   6.705   4.696  1.00  0.00    +0.062 HD
ATOM    139  H   UNK A   1       4.358   6.436   3.334  1.00  0.00    +0.062 HD
ATOM    140  H   UNK A   1       4.196   5.720   0.952  1.00  0.00    +0.063 HD
ATOM    141  H   UNK A   1      -1.584   1.977  -1.729  1.00  0.00    +0.067 HD
ATOM    142  H   UNK A   1      -2.486   0.097  -0.026  1.00  0.00    +0.041 HD
ATOM    143  H   UNK A   1      -0.793  -0.046   0.466  1.00  0.00    +0.041 HD
ATOM    144  H   UNK A   1      -4.296   2.823   1.810  1.00  0.00    +0.066 HD
ATOM    145  H   UNK A   1      -3.243   4.983   1.808  1.00  0.00    +0.029 HD
ATOM    146  H   UNK A   1      -4.956   5.256   1.819  1.00  0.00    +0.029 HD
ATOM    147  H   UNK A   1      -2.913   5.816  -0.325  1.00  0.00    +0.027 HD
ATOM    148  H   UNK A   1      -4.487   5.346  -0.924  1.00  0.00    +0.027 HD
ATOM    149  H   UNK A   1      -3.974   7.690   0.985  1.00  0.00    +0.028 HD
ATOM    150  H   UNK A   1      -4.212   7.782  -0.761  1.00  0.00    +0.028 HD
ATOM    151  H   UNK A   1      -6.492   6.540  -0.332  1.00  0.00    +0.043 HD
ATOM    152  H   UNK A   1      -6.256   6.996   1.371  1.00  0.00    +0.043 HD
ATOM    153  H   UNK A   1      -6.349   8.745  -0.938  1.00  0.00    +0.118 HD
ATOM    154  H   UNK A   1      -7.564   8.450   0.099  1.00  0.00    +0.118 HD
ATOM    155  H   UNK A   1      -8.467   2.978   2.672  1.00  0.00    +0.066 HD
ATOM    156  H   UNK A   1      -7.866   5.148   1.141  1.00  0.00    +0.034 HD
ATOM    157  H   UNK A   1      -9.010   4.393   0.073  1.00  0.00    +0.034 HD
ATOM    158  H   UNK A   1     -11.376   4.066   0.879  1.00  0.00    +0.063 HD
ATOM    159  H   UNK A   1     -13.186   5.033   2.266  1.00  0.00    +0.062 HD
ATOM    160  H   UNK A   1     -12.625   6.523   4.187  1.00  0.00    +0.062 HD
ATOM    161  H   UNK A   1     -10.229   7.013   4.697  1.00  0.00    +0.062 HD
ATOM    162  H   UNK A   1      -8.439   6.031   3.285  1.00  0.00    +0.063 HD
ATOM    163  H   UNK A   1      -9.398  -0.465  -0.153  1.00  0.00    +0.065 HD
ATOM    164  H   UNK A   1      -7.070  -0.909  -0.931  1.00  0.00    +0.026 HD
ATOM    165  H   UNK A   1      -6.414  -0.106   0.497  1.00  0.00    +0.026 HD
ATOM    166  H   UNK A   1      -7.312   0.816  -0.726  1.00  0.00    +0.026 HD
ATOM    167  H   UNK A   1     -10.131  -2.427  -0.533  1.00  0.00    +0.049 HD
ATOM    168  H   UNK A   1      -8.988  -3.270  -1.593  1.00  0.00    +0.049 HD
ATOM    169  H   UNK A   1     -10.886  -4.421   0.372  1.00  0.00    +0.029 HD
ATOM    170  H   UNK A   1      -9.939  -5.254  -0.860  1.00  0.00    +0.029 HD
ATOM    171  H   UNK A   1      -8.719  -6.057   1.012  1.00  0.00    +0.029 HD
ATOM    172  H   UNK A   1      -9.298  -4.728   2.025  1.00  0.00    +0.029 HD
ATOM    173  H   UNK A   1      -7.048  -3.981   1.670  1.00  0.00    +0.064 HD
ATOM    174  H   UNK A   1      -4.846  -5.231  -1.852  1.00  0.00    +0.067 HD
ATOM    175  H   UNK A   1      -2.832  -5.244   0.467  1.00  0.00    +0.041 HD
ATOM    176  H   UNK A   1      -2.423  -5.313  -1.251  1.00  0.00    +0.041 HD
ATOM    177  H   UNK A   1      -4.154  -9.884   0.611  1.00  0.00    +0.064 HD
ATOM    178  H   UNK A   1      -4.748  -9.672  -1.040  1.00  0.00    +0.064 HD
ATOM    179  H   UNK A   1      -6.088  -7.495   0.637  1.00  0.00    +0.296 HD
ATOM    180  H   UNK A   1       0.737  -3.558   3.234  1.00  0.00    +0.063 HD
ATOM    181  H   UNK A   1       2.903  -4.021   2.182  1.00  0.00    +0.063 HD
ATOM    182  H   UNK A   1       3.540  -3.567  -1.528  1.00  0.00    +0.043 HD
ATOM    183  H   UNK A   1       4.176  -2.857  -0.039  1.00  0.00    +0.043 HD
ATOM    184  H   UNK A   1       1.186  -3.158  -1.655  1.00  0.00    +0.063 HD
ATOM    185  H   UNK A   1      -1.198  -3.312  -1.840  1.00  0.00    +0.058 HD
ATOM    186  H   UNK A   1      -1.299  -2.457   3.204  1.00  0.00    +0.028 HD
ATOM    187  H   UNK A   1      -2.256  -3.549   2.207  1.00  0.00    +0.028 HD
ATOM    188  H   UNK A   1      -2.026  -1.826   1.749  1.00  0.00    +0.028 HD
ENDROOT
TORSDOF 0