MODEL 1
REMARK VINA RESULT:      -4.8      0.000      0.000
REMARK  Generated by RDKit with Gasteiger charges
REMARK  --------------------------------------------------
ROOT
ATOM      1  N   UNK A   1      -8.004   9.728   9.036  1.00  0.00    -0.131 N 
ATOM      2  C   UNK A   1      -8.519   9.938   7.662  1.00  0.00    +0.121 C 
ATOM      3  C   UNK A   1      -7.392  10.555   6.842  1.00  0.00    -0.037 C 
ATOM      4  C   UNK A   1      -8.909   8.556   7.098  1.00  0.00    +0.262 C 
ATOM      5  O   UNK A   1      -8.143   7.586   7.185  1.00  0.00    -0.271 OA
ATOM      6  N   UNK A   1     -10.162   8.487   6.630  1.00  0.00    -0.236 N 
ATOM      7  C   UNK A   1     -10.476   9.430   5.461  1.00  0.00    +0.143 C 
ATOM      8  C   UNK A   1     -10.313   8.576   4.166  1.00  0.00    +0.025 C 
ATOM      9  S   UNK A   1     -10.463   9.203   2.433  1.00  0.00    -0.154 S 
ATOM     10  C   UNK A   1     -11.938  10.014   5.651  1.00  0.00    +0.267 C 
ATOM     11  O   UNK A   1     -12.922   9.385   5.249  1.00  0.00    -0.270 OA
ATOM     12  N   UNK A   1     -11.938  11.150   6.386  1.00  0.00    -0.236 N 
ATOM     13  C   UNK A   1     -12.477  12.451   5.776  1.00  0.00    +0.135 C 
ATOM     14  C   UNK A   1     -12.025  12.594   4.225  1.00  0.00    -0.012 C 
ATOM     15  C   UNK A   1     -11.663  14.010   3.613  1.00  0.00    +0.031 C 
ATOM     16  C   UNK A   1     -10.429  14.074   2.586  1.00  0.00    +0.242 C 
ATOM     17  O   UNK A   1      -9.371  13.519   2.891  1.00  0.00    -0.273 OA
ATOM     18  C   UNK A   1     -14.039  12.766   6.148  1.00  0.00    +0.266 C 
ATOM     19  O   UNK A   1     -14.853  12.992   5.241  1.00  0.00    -0.270 OA
ATOM     20  N   UNK A   1     -10.671  14.818   1.472  1.00  0.00    -0.238 N 
ATOM     21  C   UNK A   1      -9.539  14.913   0.398  1.00  0.00    +0.135 C 
ATOM     22  C   UNK A   1     -10.206  14.842  -1.068  1.00  0.00    -0.012 C 
ATOM     23  C   UNK A   1     -10.022  13.508  -1.878  1.00  0.00    +0.031 C 
ATOM     24  C   UNK A   1     -10.655  13.451  -3.336  1.00  0.00    +0.242 C 
ATOM     25  O   UNK A   1     -11.481  14.284  -3.721  1.00  0.00    -0.273 OA
ATOM     26  C   UNK A   1      -8.645  16.273   0.576  1.00  0.00    +0.266 C 
ATOM     27  O   UNK A   1      -8.948  17.148   1.397  1.00  0.00    -0.270 OA
ATOM     28  N   UNK A   1     -14.326  12.880   7.498  1.00  0.00    -0.236 N 
ATOM     29  C   UNK A   1     -15.828  12.836   7.875  1.00  0.00    +0.137 C 
ATOM     30  C   UNK A   1     -16.395  11.414   7.495  1.00  0.00    -0.013 C 
ATOM     31  C   UNK A   1     -15.839  10.293   8.386  1.00  0.00    -0.060 C 
ATOM     32  C   UNK A   1     -17.935  11.385   7.446  1.00  0.00    -0.051 C 
ATOM     33  C   UNK A   1     -18.495  10.203   6.664  1.00  0.00    -0.065 C 
ATOM     34  C   UNK A   1     -16.170  13.186   9.427  1.00  0.00    +0.267 C 
ATOM     35  O   UNK A   1     -15.427  12.872  10.361  1.00  0.00    -0.270 OA
ATOM     36  N   UNK A   1     -10.208  12.373  -4.035  1.00  0.00    -0.238 N 
ATOM     37  C   UNK A   1     -10.404  12.386  -5.526  1.00  0.00    +0.136 C 
ATOM     38  C   UNK A   1      -9.607  13.538  -6.222  1.00  0.00    -0.015 C 
ATOM     39  C   UNK A   1      -8.095  13.552  -5.969  1.00  0.00    -0.060 C 
ATOM     40  C   UNK A   1      -9.899  13.617  -7.725  1.00  0.00    -0.060 C 
ATOM     41  C   UNK A   1     -10.275  10.939  -6.186  1.00  0.00    +0.267 C 
ATOM     42  O   UNK A   1     -11.295  10.250  -6.346  1.00  0.00    -0.270 OA
ATOM     43  N   UNK A   1      -7.621  16.446  -0.314  1.00  0.00    -0.235 N 
ATOM     44  C   UNK A   1      -6.290  15.804   0.041  1.00  0.00    +0.143 C 
ATOM     45  C   UNK A   1      -6.142  14.490  -0.787  1.00  0.00    +0.027 C 
ATOM     46  S   UNK A   1      -4.896  13.261  -0.155  1.00  0.00    -0.140 S 
ATOM     47  C   UNK A   1      -5.008  16.797  -0.009  1.00  0.00    +0.267 C 
ATOM     48  O   UNK A   1      -4.523  17.177   1.072  1.00  0.00    -0.270 OA
ATOM     49  N   UNK A   1     -17.349  13.858   9.600  1.00  0.00    -0.236 N 
ATOM     50  C   UNK A   1     -18.402  13.276  10.518  1.00  0.00    +0.138 C 
ATOM     51  C   UNK A   1     -17.929  12.207  11.539  1.00  0.00    +0.004 C 
ATOM     52  C   UNK A   1     -19.056  11.305  12.043  1.00  0.00    -0.045 C 
ATOM     53  C   UNK A   1     -19.777  11.607  13.204  1.00  0.00    -0.055 C 
ATOM     54  C   UNK A   1     -20.804  10.766  13.639  1.00  0.00    -0.020 C 
ATOM     55  C   UNK A   1     -21.120   9.632  12.899  1.00  0.00    +0.115 C 
ATOM     56  O   UNK A   1     -22.149   8.834  13.322  1.00  0.00    -0.508 OA
ATOM     57  C   UNK A   1     -20.411   9.312  11.742  1.00  0.00    -0.020 C 
ATOM     58  C   UNK A   1     -19.386  10.153  11.315  1.00  0.00    -0.055 C 
ATOM     59  C   UNK A   1     -19.165  14.399  11.304  1.00  0.00    +0.267 C 
ATOM     60  O   UNK A   1     -18.859  14.801  12.431  1.00  0.00    -0.270 OA
ATOM     61  N   UNK A   1      -9.052  10.609  -6.659  1.00  0.00    -0.236 N 
ATOM     62  C   UNK A   1      -8.601   9.230  -6.336  1.00  0.00    +0.131 C 
ATOM     63  C   UNK A   1      -9.286   8.178  -7.216  1.00  0.00    -0.033 C 
ATOM     64  C   UNK A   1      -7.075   9.104  -6.599  1.00  0.00    +0.266 C 
ATOM     65  O   UNK A   1      -6.561   9.110  -7.722  1.00  0.00    -0.270 OA
ATOM     66  N   UNK A   1      -4.480  17.135  -1.231  1.00  0.00    -0.236 N 
ATOM     67  C   UNK A   1      -3.020  17.554  -1.175  1.00  0.00    +0.138 C 
ATOM     68  C   UNK A   1      -2.084  16.317  -0.998  1.00  0.00    +0.004 C 
ATOM     69  C   UNK A   1      -1.820  15.379  -2.172  1.00  0.00    -0.045 C 
ATOM     70  C   UNK A   1      -0.510  14.998  -2.512  1.00  0.00    -0.055 C 
ATOM     71  C   UNK A   1      -0.280  13.979  -3.447  1.00  0.00    -0.020 C 
ATOM     72  C   UNK A   1      -1.360  13.328  -4.032  1.00  0.00    +0.115 C 
ATOM     73  O   UNK A   1      -1.125  12.251  -4.847  1.00  0.00    -0.508 OA
ATOM     74  C   UNK A   1      -2.659  13.734  -3.760  1.00  0.00    -0.020 C 
ATOM     75  C   UNK A   1      -2.879  14.761  -2.842  1.00  0.00    -0.055 C 
ATOM     76  C   UNK A   1      -2.323  18.514  -2.185  1.00  0.00    +0.266 C 
ATOM     77  O   UNK A   1      -1.173  18.921  -1.953  1.00  0.00    -0.270 OA
ATOM     78  N   UNK A   1     -20.313  14.791  10.715  1.00  0.00    -0.234 N 
ATOM     79  C   UNK A   1     -20.508  16.259  10.761  1.00  0.00    +0.151 C 
ATOM     80  C   UNK A   1     -21.001  16.751   9.387  1.00  0.00    -0.009 C 
ATOM     81  C   UNK A   1     -19.912  16.579   8.324  1.00  0.00    +0.048 C 
ATOM     82  C   UNK A   1     -20.313  17.142   6.990  1.00  0.00    +0.303 C 
ATOM     83  O   UNK A   1     -21.416  17.100   6.461  1.00  0.00    -0.252 OA
ATOM     84  O   UNK A   1     -19.268  17.713   6.356  1.00  0.00    -0.481 OA
ATOM     85  C   UNK A   1     -21.491  16.600  11.883  1.00  0.00    +0.328 C 
ATOM     86  O   UNK A   1     -22.404  17.421  11.834  1.00  0.00    -0.250 OA
ATOM     87  O   UNK A   1     -21.204  15.937  13.038  1.00  0.00    -0.480 OA
ATOM     88  N   UNK A   1      -6.333   8.861  -5.503  1.00  0.00    -0.233 N 
ATOM     89  C   UNK A   1      -5.749  10.130  -4.928  1.00  0.00    +0.160 C 
ATOM     90  C   UNK A   1      -5.847  10.133  -3.371  1.00  0.00    +0.028 C 
ATOM     91  S   UNK A   1      -6.078  11.818  -2.666  1.00  0.00    -0.140 S 
ATOM     92  C   UNK A   1      -4.280  10.183  -5.405  1.00  0.00    +0.329 C 
ATOM     93  O   UNK A   1      -3.298  10.585  -4.784  1.00  0.00    -0.250 OA
ATOM     94  O   UNK A   1      -4.118   9.727  -6.685  1.00  0.00    -0.480 OA
ATOM     95  N   UNK A   1      -3.045  18.893  -3.253  1.00  0.00    -0.238 N 
ATOM     96  C   UNK A   1      -2.276  19.600  -4.295  1.00  0.00    +0.140 C 
ATOM     97  C   UNK A   1      -2.342  21.096  -4.054  1.00  0.00    +0.325 C 
ATOM     98  O   UNK A   1      -1.712  21.940  -4.692  1.00  0.00    -0.250 OA
ATOM     99  O   UNK A   1      -3.247  21.430  -3.102  1.00  0.00    -0.480 OA
ATOM    100  C   UNK A   1      -5.943   8.696   1.436  1.00  0.00    -0.059 C 
ATOM    101  C   UNK A   1      -7.177   9.003   2.012  1.00  0.00    -0.058 C 
ATOM    102  C   UNK A   1      -7.895  10.128   1.605  1.00  0.00    -0.038 C 
ATOM    103  C   UNK A   1      -9.185  10.530   2.333  1.00  0.00    +0.019 C 
ATOM    104  C   UNK A   1      -7.326  10.955   0.598  1.00  0.00    -0.053 C 
ATOM    105  C   UNK A   1      -6.058  10.685   0.008  1.00  0.00    -0.022 C 
ATOM    106  C   UNK A   1      -5.409  11.678  -0.978  1.00  0.00    +0.076 C 
ATOM    107  C   UNK A   1      -5.367   9.525   0.453  1.00  0.00    -0.046 C 
ATOM    108  C   UNK A   1      -3.989   9.168  -0.031  1.00  0.00    -0.039 C 
ATOM    109  H   UNK A   1      -9.375  10.619   7.724  1.00  0.00    +0.060 HD
ATOM    110  H   UNK A   1      -7.690  10.714   5.801  1.00  0.00    +0.025 HD
ATOM    111  H   UNK A   1      -7.091  11.524   7.253  1.00  0.00    +0.025 HD
ATOM    112  H   UNK A   1      -6.510   9.903   6.821  1.00  0.00    +0.025 HD
ATOM    113  H   UNK A   1      -9.793  10.282   5.385  1.00  0.00    +0.067 HD
ATOM    114  H   UNK A   1      -9.335   8.084   4.199  1.00  0.00    +0.041 HD
ATOM    115  H   UNK A   1     -11.043   7.756   4.207  1.00  0.00    +0.041 HD
ATOM    116  H   UNK A   1     -11.935  13.267   6.281  1.00  0.00    +0.066 HD
ATOM    117  H   UNK A   1     -11.132  11.979   4.082  1.00  0.00    +0.030 HD
ATOM    118  H   UNK A   1     -12.804  12.146   3.597  1.00  0.00    +0.030 HD
ATOM    119  H   UNK A   1     -11.397  14.694   4.428  1.00  0.00    +0.037 HD
ATOM    120  H   UNK A   1     -12.560  14.419   3.130  1.00  0.00    +0.037 HD
ATOM    121  H   UNK A   1      -8.848  14.070   0.504  1.00  0.00    +0.066 HD
ATOM    122  H   UNK A   1      -9.805  15.650  -1.692  1.00  0.00    +0.030 HD
ATOM    123  H   UNK A   1     -11.283  15.046  -0.991  1.00  0.00    +0.030 HD
ATOM    124  H   UNK A   1      -8.946  13.327  -1.985  1.00  0.00    +0.037 HD
ATOM    125  H   UNK A   1     -10.461  12.685  -1.300  1.00  0.00    +0.037 HD
ATOM    126  H   UNK A   1     -16.345  13.599   7.275  1.00  0.00    +0.066 HD
ATOM    127  H   UNK A   1     -16.063  11.180   6.475  1.00  0.00    +0.033 HD
ATOM    128  H   UNK A   1     -14.747  10.340   8.451  1.00  0.00    +0.023 HD
ATOM    129  H   UNK A   1     -16.238  10.342   9.402  1.00  0.00    +0.023 HD
ATOM    130  H   UNK A   1     -16.092   9.310   7.979  1.00  0.00    +0.023 HD
ATOM    131  H   UNK A   1     -18.345  11.341   8.457  1.00  0.00    +0.027 HD
ATOM    132  H   UNK A   1     -18.308  12.305   6.978  1.00  0.00    +0.027 HD
ATOM    133  H   UNK A   1     -18.147  10.218   5.626  1.00  0.00    +0.023 HD
ATOM    134  H   UNK A   1     -19.589  10.251   6.651  1.00  0.00    +0.023 HD
ATOM    135  H   UNK A   1     -18.211   9.248   7.113  1.00  0.00    +0.023 HD
ATOM    136  H   UNK A   1     -11.462  12.626  -5.721  1.00  0.00    +0.066 HD
ATOM    137  H   UNK A   1      -9.982  14.483  -5.803  1.00  0.00    +0.032 HD
ATOM    138  H   UNK A   1      -7.663  14.491  -6.335  1.00  0.00    +0.023 HD
ATOM    139  H   UNK A   1      -7.575  12.742  -6.486  1.00  0.00    +0.023 HD
ATOM    140  H   UNK A   1      -7.864  13.489  -4.903  1.00  0.00    +0.023 HD
ATOM    141  H   UNK A   1      -9.444  12.792  -8.280  1.00  0.00    +0.023 HD
ATOM    142  H   UNK A   1     -10.975  13.608  -7.919  1.00  0.00    +0.023 HD
ATOM    143  H   UNK A   1      -9.502  14.550  -8.143  1.00  0.00    +0.023 HD
ATOM    144  H   UNK A   1      -6.326  15.498   1.099  1.00  0.00    +0.067 HD
ATOM    145  H   UNK A   1      -7.095  13.960  -0.785  1.00  0.00    +0.041 HD
ATOM    146  H   UNK A   1      -5.908  14.731  -1.827  1.00  0.00    +0.041 HD
ATOM    147  H   UNK A   1     -19.152  12.790   9.877  1.00  0.00    +0.066 HD
ATOM    148  H   UNK A   1     -17.421  12.669  12.394  1.00  0.00    +0.034 HD
ATOM    149  H   UNK A   1     -17.197  11.524  11.098  1.00  0.00    +0.034 HD
ATOM    150  H   UNK A   1     -19.537  12.522  13.741  1.00  0.00    +0.063 HD
ATOM    151  H   UNK A   1     -21.365  11.022  14.526  1.00  0.00    +0.066 HD
ATOM    152  H   UNK A   1     -22.324   8.244  12.570  1.00  0.00    +0.293 HD
ATOM    153  H   UNK A   1     -20.634   8.436  11.146  1.00  0.00    +0.066 HD
ATOM    154  H   UNK A   1     -18.831   9.936  10.402  1.00  0.00    +0.063 HD
ATOM    155  H   UNK A   1      -8.793   8.980  -5.283  1.00  0.00    +0.065 HD
ATOM    156  H   UNK A   1      -9.262   8.461  -8.276  1.00  0.00    +0.026 HD
ATOM    157  H   UNK A   1      -8.789   7.205  -7.123  1.00  0.00    +0.026 HD
ATOM    158  H   UNK A   1     -10.332   8.033  -6.928  1.00  0.00    +0.026 HD
ATOM    159  H   UNK A   1      -2.899  18.148  -0.252  1.00  0.00    +0.066 HD
ATOM    160  H   UNK A   1      -2.448  15.688  -0.172  1.00  0.00    +0.034 HD
ATOM    161  H   UNK A   1      -1.110  16.691  -0.653  1.00  0.00    +0.034 HD
ATOM    162  H   UNK A   1       0.322  15.486  -2.016  1.00  0.00    +0.063 HD
ATOM    163  H   UNK A   1       0.733  13.680  -3.684  1.00  0.00    +0.066 HD
ATOM    164  H   UNK A   1      -1.979  11.744  -4.855  1.00  0.00    +0.293 HD
ATOM    165  H   UNK A   1      -3.528  13.255  -4.203  1.00  0.00    +0.066 HD
ATOM    166  H   UNK A   1      -3.904  15.053  -2.610  1.00  0.00    +0.063 HD
ATOM    167  H   UNK A   1     -19.586  16.814  10.993  1.00  0.00    +0.068 HD
ATOM    168  H   UNK A   1     -21.917  16.222   9.088  1.00  0.00    +0.030 HD
ATOM    169  H   UNK A   1     -21.270  17.815   9.452  1.00  0.00    +0.030 HD
ATOM    170  H   UNK A   1     -19.005  17.094   8.659  1.00  0.00    +0.039 HD
ATOM    171  H   UNK A   1     -19.667  15.524   8.162  1.00  0.00    +0.039 HD
ATOM    172  H   UNK A   1     -19.415  17.593   5.399  1.00  0.00    +0.296 HD
ATOM    173  H   UNK A   1     -20.413  15.369  12.786  1.00  0.00    +0.296 HD
ATOM    174  H   UNK A   1      -6.242  11.025  -5.330  1.00  0.00    +0.068 HD
ATOM    175  H   UNK A   1      -6.696   9.531  -3.029  1.00  0.00    +0.041 HD
ATOM    176  H   UNK A   1      -4.939   9.696  -2.947  1.00  0.00    +0.041 HD
ATOM    177  H   UNK A   1      -5.047   9.464  -6.949  1.00  0.00    +0.296 HD
ATOM    178  H   UNK A   1      -1.225  19.299  -4.365  1.00  0.00    +0.064 HD
ATOM    179  H   UNK A   1      -2.729  19.420  -5.278  1.00  0.00    +0.064 HD
ATOM    180  H   UNK A   1      -3.539  20.522  -2.763  1.00  0.00    +0.296 HD
ATOM    181  H   UNK A   1      -5.423   7.818   1.799  1.00  0.00    +0.063 HD
ATOM    182  H   UNK A   1      -7.569   8.377   2.807  1.00  0.00    +0.063 HD
ATOM    183  H   UNK A   1      -8.936  10.898   3.332  1.00  0.00    +0.043 HD
ATOM    184  H   UNK A   1      -9.659  11.339   1.771  1.00  0.00    +0.043 HD
ATOM    185  H   UNK A   1      -7.863  11.865   0.312  1.00  0.00    +0.063 HD
ATOM    186  H   UNK A   1      -4.415  11.284  -1.199  1.00  0.00    +0.058 HD
ATOM    187  H   UNK A   1      -3.643   8.224   0.407  1.00  0.00    +0.028 HD
ATOM    188  H   UNK A   1      -3.974   9.032  -1.114  1.00  0.00    +0.028 HD
ATOM    189  H   UNK A   1      -3.272   9.942   0.261  1.00  0.00    +0.028 HD
ENDROOT
TORSDOF 0
ENDMDL
MODEL 2
REMARK VINA RESULT:      -3.3      0.989      1.022
REMARK  Generated by RDKit with Gasteiger charges
REMARK  --------------------------------------------------
ROOT
ATOM      1  N   UNK A   1      -8.169  10.575   8.912  1.00  0.00    -0.131 N 
ATOM      2  C   UNK A   1      -8.757  10.663   7.555  1.00  0.00    +0.121 C 
ATOM      3  C   UNK A   1      -7.675  11.200   6.624  1.00  0.00    -0.037 C 
ATOM      4  C   UNK A   1      -9.175   9.238   7.139  1.00  0.00    +0.262 C 
ATOM      5  O   UNK A   1      -8.406   8.277   7.270  1.00  0.00    -0.271 OA
ATOM      6  N   UNK A   1     -10.452   9.134   6.746  1.00  0.00    -0.236 N 
ATOM      7  C   UNK A   1     -10.829   9.970   5.516  1.00  0.00    +0.143 C 
ATOM      8  C   UNK A   1     -10.735   9.004   4.295  1.00  0.00    +0.025 C 
ATOM      9  S   UNK A   1     -10.979   9.474   2.524  1.00  0.00    -0.154 S 
ATOM     10  C   UNK A   1     -12.279  10.575   5.731  1.00  0.00    +0.267 C 
ATOM     11  O   UNK A   1     -13.283   9.916   5.440  1.00  0.00    -0.270 OA
ATOM     12  N   UNK A   1     -12.240  11.772   6.361  1.00  0.00    -0.236 N 
ATOM     13  C   UNK A   1     -12.812  13.015   5.667  1.00  0.00    +0.135 C 
ATOM     14  C   UNK A   1     -12.443  13.018   4.087  1.00  0.00    -0.012 C 
ATOM     15  C   UNK A   1     -12.116  14.372   3.333  1.00  0.00    +0.031 C 
ATOM     16  C   UNK A   1     -10.938  14.340   2.240  1.00  0.00    +0.242 C 
ATOM     17  O   UNK A   1      -9.865  13.809   2.536  1.00  0.00    -0.273 OA
ATOM     18  C   UNK A   1     -14.352  13.370   6.093  1.00  0.00    +0.266 C 
ATOM     19  O   UNK A   1     -15.213  13.517   5.215  1.00  0.00    -0.270 OA
ATOM     20  N   UNK A   1     -11.241  14.982   1.079  1.00  0.00    -0.238 N 
ATOM     21  C   UNK A   1     -10.168  14.976  -0.059  1.00  0.00    +0.135 C 
ATOM     22  C   UNK A   1     -10.913  14.777  -1.475  1.00  0.00    -0.012 C 
ATOM     23  C   UNK A   1     -10.772  13.376  -2.171  1.00  0.00    +0.031 C 
ATOM     24  C   UNK A   1     -11.483  13.192  -3.582  1.00  0.00    +0.242 C 
ATOM     25  O   UNK A   1     -12.329  13.991  -3.995  1.00  0.00    -0.273 OA
ATOM     26  C   UNK A   1      -9.266  16.342  -0.051  1.00  0.00    +0.266 C 
ATOM     27  O   UNK A   1      -9.525  17.288   0.704  1.00  0.00    -0.270 OA
ATOM     28  N   UNK A   1     -14.566  13.604   7.440  1.00  0.00    -0.236 N 
ATOM     29  C   UNK A   1     -16.045  13.600   7.901  1.00  0.00    +0.137 C 
ATOM     30  C   UNK A   1     -16.631  12.153   7.679  1.00  0.00    -0.013 C 
ATOM     31  C   UNK A   1     -16.027  11.114   8.636  1.00  0.00    -0.060 C 
ATOM     32  C   UNK A   1     -18.171  12.126   7.715  1.00  0.00    -0.051 C 
ATOM     33  C   UNK A   1     -18.771  10.882   7.074  1.00  0.00    -0.065 C 
ATOM     34  C   UNK A   1     -16.303  14.089   9.430  1.00  0.00    +0.267 C 
ATOM     35  O   UNK A   1     -15.510  13.856  10.348  1.00  0.00    -0.270 OA
ATOM     36  N   UNK A   1     -11.074  12.054  -4.205  1.00  0.00    -0.238 N 
ATOM     37  C   UNK A   1     -11.349  11.935  -5.679  1.00  0.00    +0.136 C 
ATOM     38  C   UNK A   1     -10.591  13.017  -6.516  1.00  0.00    -0.015 C 
ATOM     39  C   UNK A   1      -9.068  13.047  -6.347  1.00  0.00    -0.060 C 
ATOM     40  C   UNK A   1     -10.964  12.963  -8.003  1.00  0.00    -0.060 C 
ATOM     41  C   UNK A   1     -11.256  10.435  -6.214  1.00  0.00    +0.267 C 
ATOM     42  O   UNK A   1     -12.282   9.739  -6.257  1.00  0.00    -0.270 OA
ATOM     43  N   UNK A   1      -8.292  16.431  -1.006  1.00  0.00    -0.235 N 
ATOM     44  C   UNK A   1      -6.943  15.818  -0.667  1.00  0.00    +0.143 C 
ATOM     45  C   UNK A   1      -6.839  14.435  -1.381  1.00  0.00    +0.027 C 
ATOM     46  S   UNK A   1      -5.560  13.262  -0.711  1.00  0.00    -0.140 S 
ATOM     47  C   UNK A   1      -5.667  16.797  -0.874  1.00  0.00    +0.267 C 
ATOM     48  O   UNK A   1      -5.124  17.269   0.141  1.00  0.00    -0.270 OA
ATOM     49  N   UNK A   1     -17.472  14.779   9.606  1.00  0.00    -0.236 N 
ATOM     50  C   UNK A   1     -18.473  14.285  10.628  1.00  0.00    +0.138 C 
ATOM     51  C   UNK A   1     -17.945  13.309  11.713  1.00  0.00    +0.004 C 
ATOM     52  C   UNK A   1     -19.043  12.461  12.356  1.00  0.00    -0.045 C 
ATOM     53  C   UNK A   1     -19.701  12.868  13.521  1.00  0.00    -0.055 C 
ATOM     54  C   UNK A   1     -20.703  12.074  14.085  1.00  0.00    -0.020 C 
ATOM     55  C   UNK A   1     -21.057  10.880  13.467  1.00  0.00    +0.115 C 
ATOM     56  O   UNK A   1     -22.062  10.127  14.014  1.00  0.00    -0.508 OA
ATOM     57  C   UNK A   1     -20.412  10.455  12.307  1.00  0.00    -0.020 C 
ATOM     58  C   UNK A   1     -19.411  11.250  11.752  1.00  0.00    -0.055 C 
ATOM     59  C   UNK A   1     -19.193  15.477  11.350  1.00  0.00    +0.267 C 
ATOM     60  O   UNK A   1     -18.827  15.976  12.419  1.00  0.00    -0.270 OA
ATOM     61  N   UNK A   1     -10.059  10.058  -6.720  1.00  0.00    -0.236 N 
ATOM     62  C   UNK A   1      -9.591   8.712  -6.299  1.00  0.00    +0.131 C 
ATOM     63  C   UNK A   1     -10.322   7.588  -7.045  1.00  0.00    -0.033 C 
ATOM     64  C   UNK A   1      -8.081   8.556  -6.632  1.00  0.00    +0.266 C 
ATOM     65  O   UNK A   1      -7.628   8.460  -7.776  1.00  0.00    -0.270 OA
ATOM     66  N   UNK A   1      -5.205  17.022  -2.149  1.00  0.00    -0.236 N 
ATOM     67  C   UNK A   1      -3.745  17.438  -2.208  1.00  0.00    +0.138 C 
ATOM     68  C   UNK A   1      -2.800  16.218  -1.972  1.00  0.00    +0.004 C 
ATOM     69  C   UNK A   1      -2.599  15.177  -3.070  1.00  0.00    -0.045 C 
ATOM     70  C   UNK A   1      -1.308  14.762  -3.444  1.00  0.00    -0.055 C 
ATOM     71  C   UNK A   1      -1.129  13.663  -4.296  1.00  0.00    -0.020 C 
ATOM     72  C   UNK A   1      -2.239  12.967  -4.762  1.00  0.00    +0.115 C 
ATOM     73  O   UNK A   1      -2.047  11.822  -5.489  1.00  0.00    -0.508 OA
ATOM     74  C   UNK A   1      -3.521  13.402  -4.458  1.00  0.00    -0.020 C 
ATOM     75  C   UNK A   1      -3.692  14.508  -3.624  1.00  0.00    -0.055 C 
ATOM     76  C   UNK A   1      -3.103  18.302  -3.335  1.00  0.00    +0.266 C 
ATOM     77  O   UNK A   1      -1.943  18.723  -3.203  1.00  0.00    -0.270 OA
ATOM     78  N   UNK A   1     -20.371  15.820  10.791  1.00  0.00    -0.234 N 
ATOM     79  C   UNK A   1     -20.564  17.287  10.716  1.00  0.00    +0.151 C 
ATOM     80  C   UNK A   1     -21.131  17.657   9.332  1.00  0.00    -0.009 C 
ATOM     81  C   UNK A   1     -20.101  17.386   8.232  1.00  0.00    +0.048 C 
ATOM     82  C   UNK A   1     -20.573  17.830   6.877  1.00  0.00    +0.303 C 
ATOM     83  O   UNK A   1     -21.703  17.746   6.413  1.00  0.00    -0.252 OA
ATOM     84  O   UNK A   1     -19.564  18.338   6.139  1.00  0.00    -0.481 OA
ATOM     85  C   UNK A   1     -21.486  17.731  11.854  1.00  0.00    +0.328 C 
ATOM     86  O   UNK A   1     -22.401  18.549  11.781  1.00  0.00    -0.250 OA
ATOM     87  O   UNK A   1     -21.137  17.172  13.047  1.00  0.00    -0.480 OA
ATOM     88  N   UNK A   1      -7.282   8.409  -5.560  1.00  0.00    -0.233 N 
ATOM     89  C   UNK A   1      -6.668   9.722  -5.133  1.00  0.00    +0.160 C 
ATOM     90  C   UNK A   1      -6.682   9.863  -3.579  1.00  0.00    +0.028 C 
ATOM     91  S   UNK A   1      -6.876  11.605  -3.016  1.00  0.00    -0.140 S 
ATOM     92  C   UNK A   1      -5.226   9.725  -5.690  1.00  0.00    +0.329 C 
ATOM     93  O   UNK A   1      -4.213  10.177  -5.161  1.00  0.00    -0.250 OA
ATOM     94  O   UNK A   1      -5.134   9.156  -6.932  1.00  0.00    -0.480 OA
ATOM     95  N   UNK A   1      -3.882  18.587  -4.393  1.00  0.00    -0.238 N 
ATOM     96  C   UNK A   1      -3.170  19.195  -5.534  1.00  0.00    +0.140 C 
ATOM     97  C   UNK A   1      -3.224  20.706  -5.424  1.00  0.00    +0.325 C 
ATOM     98  O   UNK A   1      -2.629  21.488  -6.167  1.00  0.00    -0.250 OA
ATOM     99  O   UNK A   1      -4.076  21.128  -4.459  1.00  0.00    -0.480 OA
ATOM    100  C   UNK A   1      -6.518   8.861   1.335  1.00  0.00    -0.059 C 
ATOM    101  C   UNK A   1      -7.720   9.223   1.947  1.00  0.00    -0.058 C 
ATOM    102  C   UNK A   1      -8.460  10.310   1.481  1.00  0.00    -0.038 C 
ATOM    103  C   UNK A   1      -9.708  10.781   2.237  1.00  0.00    +0.019 C 
ATOM    104  C   UNK A   1      -7.946  11.042   0.375  1.00  0.00    -0.053 C 
ATOM    105  C   UNK A   1      -6.712  10.715  -0.256  1.00  0.00    -0.022 C 
ATOM    106  C   UNK A   1      -6.117  11.614  -1.361  1.00  0.00    +0.076 C 
ATOM    107  C   UNK A   1      -5.997   9.596   0.253  1.00  0.00    -0.046 C 
ATOM    108  C   UNK A   1      -4.647   9.192  -0.270  1.00  0.00    -0.039 C 
ATOM    109  H   UNK A   1      -9.608  11.351   7.602  1.00  0.00    +0.060 HD
ATOM    110  H   UNK A   1      -8.029  11.267   5.590  1.00  0.00    +0.025 HD
ATOM    111  H   UNK A   1      -7.353  12.201   6.930  1.00  0.00    +0.025 HD
ATOM    112  H   UNK A   1      -6.795  10.545   6.614  1.00  0.00    +0.025 HD
ATOM    113  H   UNK A   1     -10.151  10.808   5.327  1.00  0.00    +0.067 HD
ATOM    114  H   UNK A   1      -9.756   8.512   4.320  1.00  0.00    +0.041 HD
ATOM    115  H   UNK A   1     -11.462   8.193   4.449  1.00  0.00    +0.041 HD
ATOM    116  H   UNK A   1     -12.243  13.871   6.068  1.00  0.00    +0.066 HD
ATOM    117  H   UNK A   1     -11.559  12.389   3.952  1.00  0.00    +0.030 HD
ATOM    118  H   UNK A   1     -13.255  12.519   3.545  1.00  0.00    +0.030 HD
ATOM    119  H   UNK A   1     -11.806  15.125   4.068  1.00  0.00    +0.037 HD
ATOM    120  H   UNK A   1     -13.038  14.740   2.864  1.00  0.00    +0.037 HD
ATOM    121  H   UNK A   1      -9.472  14.143   0.085  1.00  0.00    +0.066 HD
ATOM    122  H   UNK A   1     -10.547  15.525  -2.189  1.00  0.00    +0.030 HD
ATOM    123  H   UNK A   1     -11.984  14.992  -1.358  1.00  0.00    +0.030 HD
ATOM    124  H   UNK A   1      -9.704  13.182  -2.319  1.00  0.00    +0.037 HD
ATOM    125  H   UNK A   1     -11.179  12.610  -1.499  1.00  0.00    +0.037 HD
ATOM    126  H   UNK A   1     -16.594  14.310   7.264  1.00  0.00    +0.066 HD
ATOM    127  H   UNK A   1     -16.354  11.828   6.668  1.00  0.00    +0.033 HD
ATOM    128  H   UNK A   1     -14.933  11.161   8.638  1.00  0.00    +0.023 HD
ATOM    129  H   UNK A   1     -16.371  11.254   9.663  1.00  0.00    +0.023 HD
ATOM    130  H   UNK A   1     -16.301  10.099   8.332  1.00  0.00    +0.023 HD
ATOM    131  H   UNK A   1     -18.526  12.174   8.747  1.00  0.00    +0.027 HD
ATOM    132  H   UNK A   1     -18.569  13.002   7.188  1.00  0.00    +0.027 HD
ATOM    133  H   UNK A   1     -18.480  10.802   6.022  1.00  0.00    +0.023 HD
ATOM    134  H   UNK A   1     -19.865  10.933   7.115  1.00  0.00    +0.023 HD
ATOM    135  H   UNK A   1     -18.464   9.969   7.590  1.00  0.00    +0.023 HD
ATOM    136  H   UNK A   1     -12.417  12.161  -5.838  1.00  0.00    +0.066 HD
ATOM    137  H   UNK A   1     -10.944  13.997  -6.164  1.00  0.00    +0.032 HD
ATOM    138  H   UNK A   1      -8.657  13.948  -6.818  1.00  0.00    +0.023 HD
ATOM    139  H   UNK A   1      -8.576  12.192  -6.817  1.00  0.00    +0.023 HD
ATOM    140  H   UNK A   1      -8.780  13.078  -5.294  1.00  0.00    +0.023 HD
ATOM    141  H   UNK A   1     -10.539  12.090  -8.506  1.00  0.00    +0.023 HD
ATOM    142  H   UNK A   1     -12.049  12.942  -8.137  1.00  0.00    +0.023 HD
ATOM    143  H   UNK A   1     -10.590  13.854  -8.523  1.00  0.00    +0.023 HD
ATOM    144  H   UNK A   1      -6.923  15.607   0.414  1.00  0.00    +0.067 HD
ATOM    145  H   UNK A   1      -7.790  13.911  -1.281  1.00  0.00    +0.041 HD
ATOM    146  H   UNK A   1      -6.662  14.581  -2.450  1.00  0.00    +0.041 HD
ATOM    147  H   UNK A   1     -19.256  13.748  10.074  1.00  0.00    +0.066 HD
ATOM    148  H   UNK A   1     -17.393  13.843  12.495  1.00  0.00    +0.034 HD
ATOM    149  H   UNK A   1     -17.238  12.587  11.297  1.00  0.00    +0.034 HD
ATOM    150  H   UNK A   1     -19.433  13.826  13.961  1.00  0.00    +0.063 HD
ATOM    151  H   UNK A   1     -21.216  12.410  14.974  1.00  0.00    +0.066 HD
ATOM    152  H   UNK A   1     -22.277   9.473  13.327  1.00  0.00    +0.293 HD
ATOM    153  H   UNK A   1     -20.666   9.531  11.804  1.00  0.00    +0.066 HD
ATOM    154  H   UNK A   1     -18.906  10.950  10.833  1.00  0.00    +0.063 HD
ATOM    155  H   UNK A   1      -9.726   8.557  -5.219  1.00  0.00    +0.065 HD
ATOM    156  H   UNK A   1     -10.355   7.776  -8.125  1.00  0.00    +0.026 HD
ATOM    157  H   UNK A   1      -9.820   6.625  -6.892  1.00  0.00    +0.026 HD
ATOM    158  H   UNK A   1     -11.351   7.475  -6.689  1.00  0.00    +0.026 HD
ATOM    159  H   UNK A   1      -3.574  18.112  -1.350  1.00  0.00    +0.066 HD
ATOM    160  H   UNK A   1      -3.118  15.667  -1.075  1.00  0.00    +0.034 HD
ATOM    161  H   UNK A   1      -1.809  16.617  -1.715  1.00  0.00    +0.034 HD
ATOM    162  H   UNK A   1      -0.451  15.289  -3.039  1.00  0.00    +0.063 HD
ATOM    163  H   UNK A   1      -0.130  13.340  -4.560  1.00  0.00    +0.066 HD
ATOM    164  H   UNK A   1      -2.900  11.319  -5.405  1.00  0.00    +0.293 HD
ATOM    165  H   UNK A   1      -4.413  12.889  -4.810  1.00  0.00    +0.066 HD
ATOM    166  H   UNK A   1      -4.703  14.824  -3.365  1.00  0.00    +0.063 HD
ATOM    167  H   UNK A   1     -19.632  17.857  10.848  1.00  0.00    +0.068 HD
ATOM    168  H   UNK A   1     -22.061  17.107   9.131  1.00  0.00    +0.030 HD
ATOM    169  H   UNK A   1     -21.397  18.724   9.317  1.00  0.00    +0.030 HD
ATOM    170  H   UNK A   1     -19.177  17.925   8.470  1.00  0.00    +0.039 HD
ATOM    171  H   UNK A   1     -19.864  16.320   8.152  1.00  0.00    +0.039 HD
ATOM    172  H   UNK A   1     -19.762  18.134   5.206  1.00  0.00    +0.296 HD
ATOM    173  H   UNK A   1     -20.360  16.581  12.804  1.00  0.00    +0.296 HD
ATOM    174  H   UNK A   1      -7.182  10.579  -5.585  1.00  0.00    +0.068 HD
ATOM    175  H   UNK A   1      -7.512   9.298  -3.140  1.00  0.00    +0.041 HD
ATOM    176  H   UNK A   1      -5.752   9.462  -3.167  1.00  0.00    +0.041 HD
ATOM    177  H   UNK A   1      -6.076   8.875  -7.121  1.00  0.00    +0.296 HD
ATOM    178  H   UNK A   1      -2.124  18.884  -5.633  1.00  0.00    +0.064 HD
ATOM    179  H   UNK A   1      -3.676  18.931  -6.471  1.00  0.00    +0.064 HD
ATOM    180  H   UNK A   1      -4.350  20.255  -4.025  1.00  0.00    +0.296 HD
ATOM    181  H   UNK A   1      -5.979   8.016   1.746  1.00  0.00    +0.063 HD
ATOM    182  H   UNK A   1      -8.069   8.672   2.814  1.00  0.00    +0.063 HD
ATOM    183  H   UNK A   1      -9.406  11.236   3.185  1.00  0.00    +0.043 HD
ATOM    184  H   UNK A   1     -10.213  11.539   1.632  1.00  0.00    +0.043 HD
ATOM    185  H   UNK A   1      -8.498  11.926   0.037  1.00  0.00    +0.063 HD
ATOM    186  H   UNK A   1      -5.136  11.197  -1.598  1.00  0.00    +0.058 HD
ATOM    187  H   UNK A   1      -4.277   8.289   0.230  1.00  0.00    +0.028 HD
ATOM    188  H   UNK A   1      -4.690   8.959  -1.336  1.00  0.00    +0.028 HD
ATOM    189  H   UNK A   1      -3.915   9.985  -0.088  1.00  0.00    +0.028 HD
ENDROOT
TORSDOF 0
ENDMDL
