REMARK  Generated by RDKit with Gasteiger charges
REMARK  --------------------------------------------------
ROOT
ATOM      1  N   UNK A   1      -7.617   5.885   1.495  1.00  0.00    -0.131 N 
ATOM      2  C   UNK A   1      -7.620   4.457   1.121  1.00  0.00    +0.121 C 
ATOM      3  C   UNK A   1      -8.697   3.784   1.976  1.00  0.00    -0.037 C 
ATOM      4  C   UNK A   1      -7.884   4.307  -0.387  1.00  0.00    +0.262 C 
ATOM      5  O   UNK A   1      -8.171   5.266  -1.109  1.00  0.00    -0.271 OA
ATOM      6  N   UNK A   1      -7.820   3.016  -0.721  1.00  0.00    -0.236 N 
ATOM      7  C   UNK A   1      -6.962   2.656  -1.897  1.00  0.00    +0.143 C 
ATOM      8  C   UNK A   1      -5.730   1.757  -1.495  1.00  0.00    +0.025 C 
ATOM      9  S   UNK A   1      -4.252   2.693  -0.775  1.00  0.00    -0.154 S 
ATOM     10  C   UNK A   1      -7.791   1.936  -3.041  1.00  0.00    +0.267 C 
ATOM     11  O   UNK A   1      -7.785   2.453  -4.167  1.00  0.00    -0.270 OA
ATOM     12  N   UNK A   1      -8.443   0.819  -2.650  1.00  0.00    -0.236 N 
ATOM     13  C   UNK A   1      -9.034  -0.163  -3.629  1.00  0.00    +0.137 C 
ATOM     14  C   UNK A   1      -9.509   0.347  -5.023  1.00  0.00    -0.013 C 
ATOM     15  C   UNK A   1     -10.151  -0.772  -5.872  1.00  0.00    -0.060 C 
ATOM     16  C   UNK A   1     -10.541   1.517  -4.947  1.00  0.00    -0.051 C 
ATOM     17  C   UNK A   1     -11.848   1.212  -4.224  1.00  0.00    -0.065 C 
ATOM     18  C   UNK A   1      -8.351  -1.594  -3.547  1.00  0.00    +0.267 C 
ATOM     19  O   UNK A   1      -8.702  -2.350  -2.622  1.00  0.00    -0.270 OA
ATOM     20  N   UNK A   1      -7.507  -1.915  -4.561  1.00  0.00    -0.236 N 
ATOM     21  C   UNK A   1      -6.650  -3.136  -4.289  1.00  0.00    +0.135 C 
ATOM     22  C   UNK A   1      -7.492  -4.445  -4.420  1.00  0.00    -0.013 C 
ATOM     23  C   UNK A   1      -7.270  -5.415  -3.250  1.00  0.00    +0.029 C 
ATOM     24  C   UNK A   1      -6.563  -6.722  -3.574  1.00  0.00    +0.217 C 
ATOM     25  O   UNK A   1      -6.953  -7.812  -3.133  1.00  0.00    -0.275 OA
ATOM     26  N   UNK A   1      -5.448  -6.649  -4.347  1.00  0.00    -0.370 N 
ATOM     27  C   UNK A   1      -5.378  -3.285  -5.217  1.00  0.00    +0.266 C 
ATOM     28  O   UNK A   1      -5.304  -2.835  -6.361  1.00  0.00    -0.270 OA
ATOM     29  N   UNK A   1      -4.470  -4.109  -4.635  1.00  0.00    -0.236 N 
ATOM     30  C   UNK A   1      -3.034  -3.647  -4.609  1.00  0.00    +0.131 C 
ATOM     31  C   UNK A   1      -2.927  -2.349  -3.788  1.00  0.00    -0.033 C 
ATOM     32  C   UNK A   1      -2.064  -4.763  -3.994  1.00  0.00    +0.266 C 
ATOM     33  O   UNK A   1      -2.471  -5.906  -3.742  1.00  0.00    -0.270 OA
ATOM     34  N   UNK A   1      -0.774  -4.333  -3.911  1.00  0.00    -0.236 N 
ATOM     35  C   UNK A   1       0.092  -4.940  -2.809  1.00  0.00    +0.136 C 
ATOM     36  C   UNK A   1       0.567  -6.374  -3.223  1.00  0.00    -0.015 C 
ATOM     37  C   UNK A   1       1.254  -7.118  -2.073  1.00  0.00    -0.060 C 
ATOM     38  C   UNK A   1       1.464  -6.396  -4.467  1.00  0.00    -0.060 C 
ATOM     39  C   UNK A   1       1.385  -4.045  -2.427  1.00  0.00    +0.267 C 
ATOM     40  O   UNK A   1       2.152  -3.628  -3.303  1.00  0.00    -0.270 OA
ATOM     41  N   UNK A   1       1.538  -3.937  -1.077  1.00  0.00    -0.235 N 
ATOM     42  C   UNK A   1       2.784  -3.254  -0.503  1.00  0.00    +0.143 C 
ATOM     43  C   UNK A   1       2.416  -1.888   0.200  1.00  0.00    +0.027 C 
ATOM     44  S   UNK A   1       2.346  -0.318  -0.835  1.00  0.00    -0.140 S 
ATOM     45  C   UNK A   1       3.437  -4.199   0.659  1.00  0.00    +0.267 C 
ATOM     46  O   UNK A   1       2.779  -5.052   1.266  1.00  0.00    -0.270 OA
ATOM     47  N   UNK A   1       4.756  -3.941   0.891  1.00  0.00    -0.239 N 
ATOM     48  C   UNK A   1       5.113  -3.700   2.341  1.00  0.00    +0.124 C 
ATOM     49  C   UNK A   1       6.538  -4.149   2.845  1.00  0.00    +0.263 C 
ATOM     50  O   UNK A   1       7.154  -5.080   2.299  1.00  0.00    -0.271 OA
ATOM     51  N   UNK A   1       7.080  -3.540   3.941  1.00  0.00    -0.240 N 
ATOM     52  C   UNK A   1       6.271  -2.647   4.806  1.00  0.00    +0.124 C 
ATOM     53  C   UNK A   1       7.126  -1.929   5.917  1.00  0.00    +0.263 C 
ATOM     54  O   UNK A   1       8.003  -2.505   6.573  1.00  0.00    -0.271 OA
ATOM     55  N   UNK A   1       6.686  -0.676   6.167  1.00  0.00    -0.236 N 
ATOM     56  C   UNK A   1       7.624   0.432   5.755  1.00  0.00    +0.135 C 
ATOM     57  C   UNK A   1       8.005   0.317   4.244  1.00  0.00    -0.013 C 
ATOM     58  C   UNK A   1       9.519   0.282   4.015  1.00  0.00    +0.029 C 
ATOM     59  C   UNK A   1      10.242  -0.903   4.632  1.00  0.00    +0.217 C 
ATOM     60  O   UNK A   1      11.308  -0.778   5.253  1.00  0.00    -0.275 OA
ATOM     61  N   UNK A   1       9.788  -2.143   4.274  1.00  0.00    -0.370 N 
ATOM     62  C   UNK A   1       7.031   1.858   6.200  1.00  0.00    +0.266 C 
ATOM     63  O   UNK A   1       6.771   2.092   7.389  1.00  0.00    -0.270 OA
ATOM     64  N   UNK A   1       7.000   2.767   5.200  1.00  0.00    -0.236 N 
ATOM     65  C   UNK A   1       5.933   3.818   5.288  1.00  0.00    +0.140 C 
ATOM     66  C   UNK A   1       6.416   5.046   6.127  1.00  0.00    +0.023 C 
ATOM     67  C   UNK A   1       7.404   5.975   5.463  1.00  0.00    +0.061 C 
ATOM     68  C   UNK A   1       8.246   5.674   4.411  1.00  0.00    +0.024 C 
ATOM     69  N   UNK A   1       8.536   6.880   3.856  1.00  0.00    -0.351 N 
ATOM     70  C   UNK A   1       8.113   7.849   4.721  1.00  0.00    +0.092 C 
ATOM     71  N   UNK A   1       7.500   7.340   5.770  1.00  0.00    -0.242 N 
ATOM     72  C   UNK A   1       5.188   4.324   3.973  1.00  0.00    +0.267 C 
ATOM     73  O   UNK A   1       4.125   4.945   4.124  1.00  0.00    -0.270 OA
ATOM     74  N   UNK A   1       5.826   4.125   2.802  1.00  0.00    -0.235 N 
ATOM     75  C   UNK A   1       5.028   4.030   1.501  1.00  0.00    +0.143 C 
ATOM     76  C   UNK A   1       3.633   3.308   1.605  1.00  0.00    +0.027 C 
ATOM     77  S   UNK A   1       2.923   2.623  -0.021  1.00  0.00    -0.140 S 
ATOM     78  C   UNK A   1       5.043   5.432   0.775  1.00  0.00    +0.267 C 
ATOM     79  O   UNK A   1       4.184   6.300   0.930  1.00  0.00    -0.270 OA
ATOM     80  N   UNK A   1       6.153   5.565   0.008  1.00  0.00    -0.238 N 
ATOM     81  C   UNK A   1       6.393   6.899  -0.565  1.00  0.00    +0.140 C 
ATOM     82  C   UNK A   1       7.517   7.559   0.210  1.00  0.00    +0.325 C 
ATOM     83  O   UNK A   1       8.019   8.650  -0.060  1.00  0.00    -0.250 OA
ATOM     84  O   UNK A   1       7.980   6.791   1.227  1.00  0.00    -0.480 OA
ATOM     85  C   UNK A   1      -1.183   1.486   2.525  1.00  0.00    -0.059 C 
ATOM     86  C   UNK A   1      -2.165   1.560   1.528  1.00  0.00    -0.058 C 
ATOM     87  C   UNK A   1      -1.821   1.469   0.176  1.00  0.00    -0.038 C 
ATOM     88  C   UNK A   1      -2.928   1.378  -0.892  1.00  0.00    +0.019 C 
ATOM     89  C   UNK A   1      -0.438   1.310  -0.134  1.00  0.00    -0.053 C 
ATOM     90  C   UNK A   1       0.587   1.207   0.866  1.00  0.00    -0.022 C 
ATOM     91  C   UNK A   1       2.093   0.991   0.518  1.00  0.00    +0.076 C 
ATOM     92  C   UNK A   1       0.178   1.286   2.218  1.00  0.00    -0.046 C 
ATOM     93  C   UNK A   1       1.145   1.130   3.362  1.00  0.00    -0.039 C 
ATOM     94  H   UNK A   1      -6.629   4.048   1.364  1.00  0.00    +0.060 HD
ATOM     95  H   UNK A   1      -8.543   3.996   3.044  1.00  0.00    +0.025 HD
ATOM     96  H   UNK A   1      -9.702   4.122   1.701  1.00  0.00    +0.025 HD
ATOM     97  H   UNK A   1      -8.678   2.695   1.855  1.00  0.00    +0.025 HD
ATOM     98  H   UNK A   1      -6.558   3.557  -2.382  1.00  0.00    +0.067 HD
ATOM     99  H   UNK A   1      -6.016   1.033  -0.730  1.00  0.00    +0.041 HD
ATOM    100  H   UNK A   1      -5.372   1.195  -2.366  1.00  0.00    +0.041 HD
ATOM    101  H   UNK A   1      -9.994  -0.422  -3.150  1.00  0.00    +0.066 HD
ATOM    102  H   UNK A   1      -8.641   0.702  -5.592  1.00  0.00    +0.033 HD
ATOM    103  H   UNK A   1     -10.603  -0.356  -6.774  1.00  0.00    +0.023 HD
ATOM    104  H   UNK A   1     -10.928  -1.305  -5.315  1.00  0.00    +0.023 HD
ATOM    105  H   UNK A   1      -9.418  -1.512  -6.207  1.00  0.00    +0.023 HD
ATOM    106  H   UNK A   1     -10.106   2.396  -4.465  1.00  0.00    +0.027 HD
ATOM    107  H   UNK A   1     -10.776   1.840  -5.969  1.00  0.00    +0.027 HD
ATOM    108  H   UNK A   1     -12.384   0.366  -4.666  1.00  0.00    +0.023 HD
ATOM    109  H   UNK A   1     -12.513   2.078  -4.279  1.00  0.00    +0.023 HD
ATOM    110  H   UNK A   1     -11.682   1.005  -3.163  1.00  0.00    +0.023 HD
ATOM    111  H   UNK A   1      -6.252  -3.030  -3.269  1.00  0.00    +0.066 HD
ATOM    112  H   UNK A   1      -8.564  -4.199  -4.432  1.00  0.00    +0.030 HD
ATOM    113  H   UNK A   1      -7.315  -4.939  -5.387  1.00  0.00    +0.030 HD
ATOM    114  H   UNK A   1      -6.728  -4.948  -2.418  1.00  0.00    +0.037 HD
ATOM    115  H   UNK A   1      -8.257  -5.696  -2.857  1.00  0.00    +0.037 HD
ATOM    116  H   UNK A   1      -4.679  -7.262  -4.115  1.00  0.00    +0.159 HD
ATOM    117  H   UNK A   1      -5.022  -5.695  -4.430  1.00  0.00    +0.159 HD
ATOM    118  H   UNK A   1      -2.675  -3.455  -5.628  1.00  0.00    +0.065 HD
ATOM    119  H   UNK A   1      -3.271  -2.507  -2.758  1.00  0.00    +0.026 HD
ATOM    120  H   UNK A   1      -1.899  -1.970  -3.728  1.00  0.00    +0.026 HD
ATOM    121  H   UNK A   1      -3.537  -1.553  -4.230  1.00  0.00    +0.026 HD
ATOM    122  H   UNK A   1      -0.516  -5.029  -1.894  1.00  0.00    +0.066 HD
ATOM    123  H   UNK A   1      -0.318  -6.971  -3.475  1.00  0.00    +0.032 HD
ATOM    124  H   UNK A   1       2.219  -6.671  -1.810  1.00  0.00    +0.023 HD
ATOM    125  H   UNK A   1       0.627  -7.112  -1.177  1.00  0.00    +0.023 HD
ATOM    126  H   UNK A   1       1.434  -8.163  -2.350  1.00  0.00    +0.023 HD
ATOM    127  H   UNK A   1       2.466  -6.009  -4.259  1.00  0.00    +0.023 HD
ATOM    128  H   UNK A   1       1.583  -7.424  -4.835  1.00  0.00    +0.023 HD
ATOM    129  H   UNK A   1       1.017  -5.819  -5.284  1.00  0.00    +0.023 HD
ATOM    130  H   UNK A   1       3.558  -3.094  -1.260  1.00  0.00    +0.067 HD
ATOM    131  H   UNK A   1       3.167  -1.669   0.964  1.00  0.00    +0.041 HD
ATOM    132  H   UNK A   1       1.457  -1.987   0.726  1.00  0.00    +0.041 HD
ATOM    133  H   UNK A   1       4.399  -4.170   3.030  1.00  0.00    +0.062 HD
ATOM    134  H   UNK A   1       5.027  -2.616   2.487  1.00  0.00    +0.062 HD
ATOM    135  H   UNK A   1       5.504  -3.217   5.349  1.00  0.00    +0.062 HD
ATOM    136  H   UNK A   1       5.743  -1.869   4.243  1.00  0.00    +0.062 HD
ATOM    137  H   UNK A   1       8.546   0.357   6.351  1.00  0.00    +0.066 HD
ATOM    138  H   UNK A   1       7.559  -0.557   3.762  1.00  0.00    +0.030 HD
ATOM    139  H   UNK A   1       7.611   1.148   3.647  1.00  0.00    +0.030 HD
ATOM    140  H   UNK A   1       9.971   1.202   4.404  1.00  0.00    +0.037 HD
ATOM    141  H   UNK A   1       9.727   0.263   2.939  1.00  0.00    +0.037 HD
ATOM    142  H   UNK A   1       9.741  -2.779   5.067  1.00  0.00    +0.159 HD
ATOM    143  H   UNK A   1       8.809  -2.181   3.936  1.00  0.00    +0.159 HD
ATOM    144  H   UNK A   1       5.090   3.387   5.858  1.00  0.00    +0.066 HD
ATOM    145  H   UNK A   1       5.535   5.659   6.370  1.00  0.00    +0.036 HD
ATOM    146  H   UNK A   1       6.842   4.727   7.087  1.00  0.00    +0.036 HD
ATOM    147  H   UNK A   1       8.383   4.732   3.885  1.00  0.00    +0.084 HD
ATOM    148  H   UNK A   1       8.773   7.000   2.878  1.00  0.00    +0.167 HD
ATOM    149  H   UNK A   1       8.200   8.896   4.501  1.00  0.00    +0.104 HD
ATOM    150  H   UNK A   1       5.614   3.349   0.860  1.00  0.00    +0.067 HD
ATOM    151  H   UNK A   1       3.733   2.456   2.285  1.00  0.00    +0.041 HD
ATOM    152  H   UNK A   1       2.883   3.996   2.007  1.00  0.00    +0.041 HD
ATOM    153  H   UNK A   1       5.537   7.575  -0.563  1.00  0.00    +0.064 HD
ATOM    154  H   UNK A   1       6.745   6.794  -1.600  1.00  0.00    +0.064 HD
ATOM    155  H   UNK A   1       7.334   6.001   1.235  1.00  0.00    +0.296 HD
ATOM    156  H   UNK A   1      -1.489   1.550   3.565  1.00  0.00    +0.063 HD
ATOM    157  H   UNK A   1      -3.208   1.648   1.819  1.00  0.00    +0.063 HD
ATOM    158  H   UNK A   1      -2.478   1.468  -1.887  1.00  0.00    +0.043 HD
ATOM    159  H   UNK A   1      -3.393   0.390  -0.821  1.00  0.00    +0.043 HD
ATOM    160  H   UNK A   1      -0.147   1.204  -1.180  1.00  0.00    +0.063 HD
ATOM    161  H   UNK A   1       2.668   0.626   1.368  1.00  0.00    +0.058 HD
ATOM    162  H   UNK A   1       1.745   0.222   3.249  1.00  0.00    +0.028 HD
ATOM    163  H   UNK A   1       1.790   2.007   3.443  1.00  0.00    +0.028 HD
ATOM    164  H   UNK A   1       0.613   1.029   4.313  1.00  0.00    +0.028 HD
ENDROOT
TORSDOF 0