MODEL 1
REMARK VINA RESULT:      -6.6      0.000      0.000
REMARK  Generated by RDKit with Gasteiger charges
REMARK  --------------------------------------------------
ROOT
ATOM      1  N   UNK A   1     -20.123  15.437   6.474  1.00  0.00    -0.131 N 
ATOM      2  C   UNK A   1     -18.824  14.989   5.903  1.00  0.00    +0.121 C 
ATOM      3  C   UNK A   1     -19.136  14.339   4.563  1.00  0.00    -0.037 C 
ATOM      4  C   UNK A   1     -17.924  16.231   5.717  1.00  0.00    +0.262 C 
ATOM      5  O   UNK A   1     -18.458  17.335   5.519  1.00  0.00    -0.271 OA
ATOM      6  N   UNK A   1     -16.589  16.066   5.721  1.00  0.00    -0.236 N 
ATOM      7  C   UNK A   1     -15.965  14.707   5.898  1.00  0.00    +0.143 C 
ATOM      8  C   UNK A   1     -14.464  14.690   5.419  1.00  0.00    +0.025 C 
ATOM      9  S   UNK A   1     -14.152  14.981   3.592  1.00  0.00    -0.154 S 
ATOM     10  C   UNK A   1     -15.950  14.273   7.412  1.00  0.00    +0.267 C 
ATOM     11  O   UNK A   1     -15.668  15.062   8.319  1.00  0.00    -0.270 OA
ATOM     12  N   UNK A   1     -16.304  12.979   7.577  1.00  0.00    -0.239 N 
ATOM     13  C   UNK A   1     -15.255  12.177   8.274  1.00  0.00    +0.124 C 
ATOM     14  C   UNK A   1     -15.726  10.773   8.760  1.00  0.00    +0.263 C 
ATOM     15  O   UNK A   1     -16.702  10.632   9.509  1.00  0.00    -0.271 OA
ATOM     16  N   UNK A   1     -14.984   9.736   8.312  1.00  0.00    -0.234 N 
ATOM     17  C   UNK A   1     -13.613   9.635   8.906  1.00  0.00    +0.157 C 
ATOM     18  C   UNK A   1     -13.692   9.128  10.366  1.00  0.00    +0.075 C 
ATOM     19  O   UNK A   1     -12.416   9.178  11.036  1.00  0.00    -0.394 OA
ATOM     20  C   UNK A   1     -12.718   8.608   8.111  1.00  0.00    +0.269 C 
ATOM     21  O   UNK A   1     -13.172   7.586   7.592  1.00  0.00    -0.270 OA
ATOM     22  N   UNK A   1     -11.392   8.825   8.263  1.00  0.00    -0.236 N 
ATOM     23  C   UNK A   1     -10.839   9.952   7.435  1.00  0.00    +0.138 C 
ATOM     24  C   UNK A   1     -10.249  11.092   8.324  1.00  0.00    +0.023 C 
ATOM     25  C   UNK A   1      -9.111  10.778   9.264  1.00  0.00    +0.061 C 
ATOM     26  C   UNK A   1      -8.562   9.560   9.605  1.00  0.00    +0.024 C 
ATOM     27  N   UNK A   1      -7.444   9.843  10.320  1.00  0.00    -0.351 N 
ATOM     28  C   UNK A   1      -7.405  11.191  10.509  1.00  0.00    +0.092 C 
ATOM     29  N   UNK A   1      -8.422  11.789   9.934  1.00  0.00    -0.242 N 
ATOM     30  C   UNK A   1      -9.742   9.486   6.406  1.00  0.00    +0.248 C 
ATOM     31  O   UNK A   1      -8.732   8.861   6.759  1.00  0.00    -0.272 OA
ATOM     32  N   UNK A   1      -9.928   9.869   5.063  1.00  0.00    -0.329 N 
ATOM     33  C   UNK A   1     -11.255   9.734   4.478  1.00  0.00    +0.021 C 
ATOM     34  C   UNK A   1     -11.054   8.986   3.156  1.00  0.00    -0.033 C 
ATOM     35  C   UNK A   1      -9.610   8.481   3.215  1.00  0.00    -0.022 C 
ATOM     36  C   UNK A   1      -8.902   9.580   4.020  1.00  0.00    +0.113 C 
ATOM     37  C   UNK A   1      -8.562  10.756   3.012  1.00  0.00    +0.264 C 
ATOM     38  O   UNK A   1      -9.432  11.558   2.669  1.00  0.00    -0.271 OA
ATOM     39  N   UNK A   1      -7.288  10.684   2.584  1.00  0.00    -0.235 N 
ATOM     40  C   UNK A   1      -6.957  11.210   1.192  1.00  0.00    +0.143 C 
ATOM     41  C   UNK A   1      -7.310  12.725   0.940  1.00  0.00    +0.027 C 
ATOM     42  S   UNK A   1      -8.635  13.043  -0.368  1.00  0.00    -0.140 S 
ATOM     43  C   UNK A   1      -5.363  11.049   1.047  1.00  0.00    +0.267 C 
ATOM     44  O   UNK A   1      -4.600  11.686   1.785  1.00  0.00    -0.270 OA
ATOM     45  N   UNK A   1      -4.985  10.193   0.056  1.00  0.00    -0.234 N 
ATOM     46  C   UNK A   1      -3.505  10.275  -0.321  1.00  0.00    +0.157 C 
ATOM     47  C   UNK A   1      -2.637   9.557   0.739  1.00  0.00    +0.075 C 
ATOM     48  O   UNK A   1      -3.281   8.360   1.217  1.00  0.00    -0.394 OA
ATOM     49  C   UNK A   1      -3.127   9.647  -1.723  1.00  0.00    +0.269 C 
ATOM     50  O   UNK A   1      -3.563   8.556  -2.103  1.00  0.00    -0.270 OA
ATOM     51  N   UNK A   1      -2.181  10.375  -2.377  1.00  0.00    -0.236 N 
ATOM     52  C   UNK A   1      -2.650  10.886  -3.729  1.00  0.00    +0.131 C 
ATOM     53  C   UNK A   1      -3.931  11.720  -3.519  1.00  0.00    -0.033 C 
ATOM     54  C   UNK A   1      -1.551  11.751  -4.511  1.00  0.00    +0.266 C 
ATOM     55  O   UNK A   1      -0.350  11.739  -4.215  1.00  0.00    -0.270 OA
ATOM     56  N   UNK A   1      -2.027  12.369  -5.629  1.00  0.00    -0.236 N 
ATOM     57  C   UNK A   1      -2.332  13.831  -5.406  1.00  0.00    +0.134 C 
ATOM     58  C   UNK A   1      -1.056  14.692  -5.586  1.00  0.00    -0.020 C 
ATOM     59  C   UNK A   1      -0.453  15.218  -4.273  1.00  0.00    -0.033 C 
ATOM     60  C   UNK A   1      -1.422  15.869  -3.285  1.00  0.00    +0.018 C 
ATOM     61  N   UNK A   1      -2.339  16.804  -3.899  1.00  0.00    -0.357 N 
ATOM     62  C   UNK A   1      -2.089  17.955  -4.553  1.00  0.00    +0.185 C 
ATOM     63  N   UNK A   1      -1.052  18.706  -4.363  1.00  0.00    -0.270 N 
ATOM     64  N   UNK A   1      -3.104  18.270  -5.395  1.00  0.00    -0.370 N 
ATOM     65  C   UNK A   1      -3.443  14.461  -6.343  1.00  0.00    +0.266 C 
ATOM     66  O   UNK A   1      -3.462  14.287  -7.566  1.00  0.00    -0.270 OA
ATOM     67  N   UNK A   1      -4.201  15.334  -5.635  1.00  0.00    -0.236 N 
ATOM     68  C   UNK A   1      -5.557  15.734  -6.163  1.00  0.00    +0.140 C 
ATOM     69  C   UNK A   1      -6.460  14.546  -6.627  1.00  0.00    +0.023 C 
ATOM     70  C   UNK A   1      -6.930  13.545  -5.613  1.00  0.00    +0.061 C 
ATOM     71  C   UNK A   1      -6.639  13.482  -4.270  1.00  0.00    +0.024 C 
ATOM     72  N   UNK A   1      -7.287  12.387  -3.789  1.00  0.00    -0.351 N 
ATOM     73  C   UNK A   1      -7.940  11.812  -4.841  1.00  0.00    +0.092 C 
ATOM     74  N   UNK A   1      -7.767  12.479  -5.965  1.00  0.00    -0.242 N 
ATOM     75  C   UNK A   1      -6.258  16.746  -5.127  1.00  0.00    +0.267 C 
ATOM     76  O   UNK A   1      -5.590  17.442  -4.354  1.00  0.00    -0.270 OA
ATOM     77  N   UNK A   1      -7.587  16.839  -5.316  1.00  0.00    -0.235 N 
ATOM     78  C   UNK A   1      -8.496  17.143  -4.143  1.00  0.00    +0.143 C 
ATOM     79  C   UNK A   1      -8.117  16.449  -2.774  1.00  0.00    +0.027 C 
ATOM     80  S   UNK A   1      -9.562  15.523  -1.943  1.00  0.00    -0.140 S 
ATOM     81  C   UNK A   1      -8.762  18.685  -4.020  1.00  0.00    +0.267 C 
ATOM     82  O   UNK A   1      -8.312  19.402  -3.124  1.00  0.00    -0.270 OA
ATOM     83  N   UNK A   1      -9.645  19.161  -4.928  1.00  0.00    -0.238 N 
ATOM     84  C   UNK A   1      -9.216  20.424  -5.544  1.00  0.00    +0.140 C 
ATOM     85  C   UNK A   1      -9.717  21.659  -4.829  1.00  0.00    +0.325 C 
ATOM     86  O   UNK A   1     -10.105  22.682  -5.398  1.00  0.00    -0.250 OA
ATOM     87  O   UNK A   1      -9.640  21.591  -3.480  1.00  0.00    -0.480 OA
ATOM     88  C   UNK A   1     -10.366  17.345   2.299  1.00  0.00    -0.059 C 
ATOM     89  C   UNK A   1     -11.304  16.552   2.961  1.00  0.00    -0.058 C 
ATOM     90  C   UNK A   1     -11.466  15.210   2.614  1.00  0.00    -0.038 C 
ATOM     91  C   UNK A   1     -12.414  14.325   3.430  1.00  0.00    +0.019 C 
ATOM     92  C   UNK A   1     -10.639  14.688   1.578  1.00  0.00    -0.053 C 
ATOM     93  C   UNK A   1      -9.663  15.469   0.881  1.00  0.00    -0.022 C 
ATOM     94  C   UNK A   1      -8.794  14.910  -0.295  1.00  0.00    +0.076 C 
ATOM     95  C   UNK A   1      -9.535  16.827   1.282  1.00  0.00    -0.046 C 
ATOM     96  C   UNK A   1      -8.575  17.783   0.623  1.00  0.00    -0.039 C 
ATOM     97  H   UNK A   1     -18.415  14.275   6.608  1.00  0.00    +0.060 HD
ATOM     98  H   UNK A   1     -19.628  15.035   3.871  1.00  0.00    +0.025 HD
ATOM     99  H   UNK A   1     -18.232  13.971   4.057  1.00  0.00    +0.025 HD
ATOM    100  H   UNK A   1     -19.786  13.469   4.690  1.00  0.00    +0.025 HD
ATOM    101  H   UNK A   1     -16.481  13.943   5.311  1.00  0.00    +0.067 HD
ATOM    102  H   UNK A   1     -13.892  15.456   5.958  1.00  0.00    +0.041 HD
ATOM    103  H   UNK A   1     -14.025  13.717   5.666  1.00  0.00    +0.041 HD
ATOM    104  H   UNK A   1     -14.386  12.057   7.616  1.00  0.00    +0.062 HD
ATOM    105  H   UNK A   1     -14.892  12.675   9.181  1.00  0.00    +0.062 HD
ATOM    106  H   UNK A   1     -13.105  10.606   8.895  1.00  0.00    +0.068 HD
ATOM    107  H   UNK A   1     -14.037   8.091  10.408  1.00  0.00    +0.059 HD
ATOM    108  H   UNK A   1     -14.379   9.737  10.962  1.00  0.00    +0.059 HD
ATOM    109  H   UNK A   1     -11.788   9.204  10.270  1.00  0.00    +0.210 HD
ATOM    110  H   UNK A   1     -11.641  10.442   6.868  1.00  0.00    +0.066 HD
ATOM    111  H   UNK A   1     -11.051  11.531   8.929  1.00  0.00    +0.036 HD
ATOM    112  H   UNK A   1      -9.898  11.890   7.655  1.00  0.00    +0.036 HD
ATOM    113  H   UNK A   1      -8.821   8.561   9.274  1.00  0.00    +0.084 HD
ATOM    114  H   UNK A   1      -6.740   9.175  10.583  1.00  0.00    +0.167 HD
ATOM    115  H   UNK A   1      -6.611  11.680  11.047  1.00  0.00    +0.104 HD
ATOM    116  H   UNK A   1     -11.672  10.734   4.312  1.00  0.00    +0.049 HD
ATOM    117  H   UNK A   1     -11.929   9.168   5.124  1.00  0.00    +0.049 HD
ATOM    118  H   UNK A   1     -11.774   8.171   3.032  1.00  0.00    +0.029 HD
ATOM    119  H   UNK A   1     -11.187   9.670   2.312  1.00  0.00    +0.029 HD
ATOM    120  H   UNK A   1      -9.192   8.316   2.218  1.00  0.00    +0.029 HD
ATOM    121  H   UNK A   1      -9.578   7.531   3.763  1.00  0.00    +0.029 HD
ATOM    122  H   UNK A   1      -7.981   9.213   4.483  1.00  0.00    +0.064 HD
ATOM    123  H   UNK A   1      -7.430  10.578   0.428  1.00  0.00    +0.067 HD
ATOM    124  H   UNK A   1      -6.428  13.261   0.571  1.00  0.00    +0.041 HD
ATOM    125  H   UNK A   1      -7.629  13.218   1.866  1.00  0.00    +0.041 HD
ATOM    126  H   UNK A   1      -3.190  11.327  -0.367  1.00  0.00    +0.068 HD
ATOM    127  H   UNK A   1      -2.484  10.201   1.612  1.00  0.00    +0.059 HD
ATOM    128  H   UNK A   1      -1.649   9.282   0.358  1.00  0.00    +0.059 HD
ATOM    129  H   UNK A   1      -4.217   8.613   1.007  1.00  0.00    +0.210 HD
ATOM    130  H   UNK A   1      -2.890  10.037  -4.393  1.00  0.00    +0.065 HD
ATOM    131  H   UNK A   1      -3.718  12.583  -2.877  1.00  0.00    +0.026 HD
ATOM    132  H   UNK A   1      -4.732  11.140  -3.050  1.00  0.00    +0.026 HD
ATOM    133  H   UNK A   1      -4.327  12.069  -4.481  1.00  0.00    +0.026 HD
ATOM    134  H   UNK A   1      -2.714  13.948  -4.387  1.00  0.00    +0.066 HD
ATOM    135  H   UNK A   1      -1.269  15.563  -6.218  1.00  0.00    +0.029 HD
ATOM    136  H   UNK A   1      -0.278  14.131  -6.120  1.00  0.00    +0.029 HD
ATOM    137  H   UNK A   1       0.058  14.398  -3.755  1.00  0.00    +0.029 HD
ATOM    138  H   UNK A   1       0.328  15.944  -4.530  1.00  0.00    +0.029 HD
ATOM    139  H   UNK A   1      -0.849  16.379  -2.502  1.00  0.00    +0.049 HD
ATOM    140  H   UNK A   1      -2.005  15.106  -2.753  1.00  0.00    +0.049 HD
ATOM    141  H   UNK A   1      -3.158  16.276  -4.273  1.00  0.00    +0.163 HD
ATOM    142  H   UNK A   1      -0.542  18.196  -3.638  1.00  0.00    +0.191 HD
ATOM    143  H   UNK A   1      -3.984  18.314  -4.842  1.00  0.00    +0.159 HD
ATOM    144  H   UNK A   1      -3.399  17.393  -5.857  1.00  0.00    +0.159 HD
ATOM    145  H   UNK A   1      -5.395  16.358  -7.057  1.00  0.00    +0.066 HD
ATOM    146  H   UNK A   1      -7.356  14.962  -7.108  1.00  0.00    +0.036 HD
ATOM    147  H   UNK A   1      -5.950  13.990  -7.426  1.00  0.00    +0.036 HD
ATOM    148  H   UNK A   1      -6.013  14.108  -3.650  1.00  0.00    +0.084 HD
ATOM    149  H   UNK A   1      -7.253  12.068  -2.825  1.00  0.00    +0.167 HD
ATOM    150  H   UNK A   1      -8.529  10.917  -4.714  1.00  0.00    +0.104 HD
ATOM    151  H   UNK A   1      -9.472  16.713  -4.420  1.00  0.00    +0.067 HD
ATOM    152  H   UNK A   1      -7.338  15.700  -2.908  1.00  0.00    +0.041 HD
ATOM    153  H   UNK A   1      -7.749  17.186  -2.059  1.00  0.00    +0.041 HD
ATOM    154  H   UNK A   1      -9.624  20.478  -6.562  1.00  0.00    +0.064 HD
ATOM    155  H   UNK A   1      -8.127  20.518  -5.654  1.00  0.00    +0.064 HD
ATOM    156  H   UNK A   1      -9.252  20.681  -3.295  1.00  0.00    +0.296 HD
ATOM    157  H   UNK A   1     -10.275  18.386   2.591  1.00  0.00    +0.063 HD
ATOM    158  H   UNK A   1     -11.903  16.980   3.760  1.00  0.00    +0.063 HD
ATOM    159  H   UNK A   1     -12.489  13.336   2.963  1.00  0.00    +0.043 HD
ATOM    160  H   UNK A   1     -11.980  14.190   4.427  1.00  0.00    +0.043 HD
ATOM    161  H   UNK A   1     -10.742  13.630   1.332  1.00  0.00    +0.063 HD
ATOM    162  H   UNK A   1      -7.774  15.297  -0.233  1.00  0.00    +0.058 HD
ATOM    163  H   UNK A   1      -7.593  17.331   0.468  1.00  0.00    +0.028 HD
ATOM    164  H   UNK A   1      -8.989  18.132  -0.327  1.00  0.00    +0.028 HD
ATOM    165  H   UNK A   1      -8.402  18.666   1.251  1.00  0.00    +0.028 HD
ENDROOT
TORSDOF 0
ENDMDL
MODEL 2
REMARK VINA RESULT:      -4.5      2.177      2.734
REMARK  Generated by RDKit with Gasteiger charges
REMARK  --------------------------------------------------
ROOT
ATOM      1  N   UNK A   1     -22.189  16.344   3.893  1.00  0.00    -0.131 N 
ATOM      2  C   UNK A   1     -20.831  15.784   3.655  1.00  0.00    +0.121 C 
ATOM      3  C   UNK A   1     -20.801  15.306   2.210  1.00  0.00    -0.037 C 
ATOM      4  C   UNK A   1     -19.798  16.911   3.883  1.00  0.00    +0.262 C 
ATOM      5  O   UNK A   1     -20.140  18.088   3.684  1.00  0.00    -0.271 OA
ATOM      6  N   UNK A   1     -18.545  16.574   4.238  1.00  0.00    -0.236 N 
ATOM      7  C   UNK A   1     -18.136  15.134   4.410  1.00  0.00    +0.143 C 
ATOM      8  C   UNK A   1     -16.570  14.966   4.370  1.00  0.00    +0.025 C 
ATOM      9  S   UNK A   1     -15.713  15.381   2.753  1.00  0.00    -0.154 S 
ATOM     10  C   UNK A   1     -18.605  14.566   5.802  1.00  0.00    +0.267 C 
ATOM     11  O   UNK A   1     -18.523  15.225   6.843  1.00  0.00    -0.270 OA
ATOM     12  N   UNK A   1     -19.117  13.319   5.699  1.00  0.00    -0.239 N 
ATOM     13  C   UNK A   1     -18.401  12.327   6.554  1.00  0.00    +0.124 C 
ATOM     14  C   UNK A   1     -19.129  10.958   6.710  1.00  0.00    +0.263 C 
ATOM     15  O   UNK A   1     -20.289  10.877   7.135  1.00  0.00    -0.271 OA
ATOM     16  N   UNK A   1     -18.395   9.879   6.361  1.00  0.00    -0.234 N 
ATOM     17  C   UNK A   1     -17.272   9.546   7.296  1.00  0.00    +0.157 C 
ATOM     18  C   UNK A   1     -17.822   8.922   8.601  1.00  0.00    +0.075 C 
ATOM     19  O   UNK A   1     -16.798   8.744   9.600  1.00  0.00    -0.394 OA
ATOM     20  C   UNK A   1     -16.291   8.488   6.659  1.00  0.00    +0.269 C 
ATOM     21  O   UNK A   1     -16.672   7.586   5.911  1.00  0.00    -0.270 OA
ATOM     22  N   UNK A   1     -15.052   8.516   7.200  1.00  0.00    -0.236 N 
ATOM     23  C   UNK A   1     -14.173   9.632   6.706  1.00  0.00    +0.138 C 
ATOM     24  C   UNK A   1     -13.758  10.600   7.860  1.00  0.00    +0.023 C 
ATOM     25  C   UNK A   1     -12.980  10.056   9.032  1.00  0.00    +0.061 C 
ATOM     26  C   UNK A   1     -12.677   8.751   9.358  1.00  0.00    +0.024 C 
ATOM     27  N   UNK A   1     -11.793   8.819  10.385  1.00  0.00    -0.351 N 
ATOM     28  C   UNK A   1     -11.677  10.128  10.744  1.00  0.00    +0.092 C 
ATOM     29  N   UNK A   1     -12.419  10.903   9.988  1.00  0.00    -0.242 N 
ATOM     30  C   UNK A   1     -12.876   9.124   5.973  1.00  0.00    +0.248 C 
ATOM     31  O   UNK A   1     -12.079   8.343   6.513  1.00  0.00    -0.272 OA
ATOM     32  N   UNK A   1     -12.624   9.650   4.691  1.00  0.00    -0.329 N 
ATOM     33  C   UNK A   1     -13.730   9.742   3.747  1.00  0.00    +0.021 C 
ATOM     34  C   UNK A   1     -13.227   9.098   2.450  1.00  0.00    -0.033 C 
ATOM     35  C   UNK A   1     -11.921   8.406   2.846  1.00  0.00    -0.022 C 
ATOM     36  C   UNK A   1     -11.373   9.326   3.946  1.00  0.00    +0.113 C 
ATOM     37  C   UNK A   1     -10.640  10.535   3.228  1.00  0.00    +0.264 C 
ATOM     38  O   UNK A   1     -11.289  11.471   2.759  1.00  0.00    -0.271 OA
ATOM     39  N   UNK A   1      -9.310  10.337   3.166  1.00  0.00    -0.235 N 
ATOM     40  C   UNK A   1      -8.538  10.940   1.998  1.00  0.00    +0.143 C 
ATOM     41  C   UNK A   1      -8.652  12.506   1.850  1.00  0.00    +0.027 C 
ATOM     42  S   UNK A   1      -9.501  13.111   0.274  1.00  0.00    -0.140 S 
ATOM     43  C   UNK A   1      -6.995  10.587   2.283  1.00  0.00    +0.267 C 
ATOM     44  O   UNK A   1      -6.422  11.050   3.279  1.00  0.00    -0.270 OA
ATOM     45  N   UNK A   1      -6.431   9.784   1.338  1.00  0.00    -0.234 N 
ATOM     46  C   UNK A   1      -4.906   9.707   1.401  1.00  0.00    +0.157 C 
ATOM     47  C   UNK A   1      -4.459   8.788   2.562  1.00  0.00    +0.075 C 
ATOM     48  O   UNK A   1      -5.328   7.646   2.689  1.00  0.00    -0.394 OA
ATOM     49  C   UNK A   1      -4.200   9.166   0.093  1.00  0.00    +0.269 C 
ATOM     50  O   UNK A   1      -4.611   8.180  -0.527  1.00  0.00    -0.270 OA
ATOM     51  N   UNK A   1      -3.037   9.821  -0.176  1.00  0.00    -0.236 N 
ATOM     52  C   UNK A   1      -3.040  10.511  -1.530  1.00  0.00    +0.131 C 
ATOM     53  C   UNK A   1      -4.238  11.481  -1.582  1.00  0.00    -0.033 C 
ATOM     54  C   UNK A   1      -1.681  11.293  -1.861  1.00  0.00    +0.266 C 
ATOM     55  O   UNK A   1      -0.625  11.098  -1.246  1.00  0.00    -0.270 OA
ATOM     56  N   UNK A   1      -1.748  12.068  -2.981  1.00  0.00    -0.236 N 
ATOM     57  C   UNK A   1      -1.959  13.530  -2.671  1.00  0.00    +0.134 C 
ATOM     58  C   UNK A   1      -0.608  14.230  -2.379  1.00  0.00    -0.020 C 
ATOM     59  C   UNK A   1      -0.365  14.551  -0.895  1.00  0.00    -0.033 C 
ATOM     60  C   UNK A   1      -1.510  15.230  -0.143  1.00  0.00    +0.018 C 
ATOM     61  N   UNK A   1      -2.112  16.328  -0.866  1.00  0.00    -0.357 N 
ATOM     62  C   UNK A   1      -1.571  17.492  -1.275  1.00  0.00    +0.185 C 
ATOM     63  N   UNK A   1      -0.564  18.081  -0.712  1.00  0.00    -0.270 N 
ATOM     64  N   UNK A   1      -2.260  18.012  -2.320  1.00  0.00    -0.370 N 
ATOM     65  C   UNK A   1      -2.682  14.383  -3.793  1.00  0.00    +0.266 C 
ATOM     66  O   UNK A   1      -2.361  14.325  -4.986  1.00  0.00    -0.270 OA
ATOM     67  N   UNK A   1      -3.523  15.278  -3.221  1.00  0.00    -0.236 N 
ATOM     68  C   UNK A   1      -4.620  15.898  -4.051  1.00  0.00    +0.140 C 
ATOM     69  C   UNK A   1      -5.462  14.885  -4.893  1.00  0.00    +0.023 C 
ATOM     70  C   UNK A   1      -6.302  13.865  -4.183  1.00  0.00    +0.061 C 
ATOM     71  C   UNK A   1      -6.423  13.642  -2.831  1.00  0.00    +0.024 C 
ATOM     72  N   UNK A   1      -7.288  12.601  -2.690  1.00  0.00    -0.351 N 
ATOM     73  C   UNK A   1      -7.659  12.214  -3.946  1.00  0.00    +0.092 C 
ATOM     74  N   UNK A   1      -7.102  12.954  -4.885  1.00  0.00    -0.242 N 
ATOM     75  C   UNK A   1      -5.489  16.893  -3.133  1.00  0.00    +0.267 C 
ATOM     76  O   UNK A   1      -5.010  17.423  -2.124  1.00  0.00    -0.270 OA
ATOM     77  N   UNK A   1      -6.690  17.175  -3.672  1.00  0.00    -0.235 N 
ATOM     78  C   UNK A   1      -7.866  17.486  -2.770  1.00  0.00    +0.143 C 
ATOM     79  C   UNK A   1      -7.973  16.627  -1.447  1.00  0.00    +0.027 C 
ATOM     80  S   UNK A   1      -9.681  15.825  -1.174  1.00  0.00    -0.140 S 
ATOM     81  C   UNK A   1      -8.003  19.032  -2.534  1.00  0.00    +0.267 C 
ATOM     82  O   UNK A   1      -7.765  19.600  -1.466  1.00  0.00    -0.270 OA
ATOM     83  N   UNK A   1      -8.533  19.700  -3.584  1.00  0.00    -0.238 N 
ATOM     84  C   UNK A   1      -7.821  20.948  -3.894  1.00  0.00    +0.140 C 
ATOM     85  C   UNK A   1      -8.384  22.166  -3.198  1.00  0.00    +0.325 C 
ATOM     86  O   UNK A   1      -8.487  23.279  -3.721  1.00  0.00    -0.250 OA
ATOM     87  O   UNK A   1      -8.710  21.966  -1.902  1.00  0.00    -0.480 OA
ATOM     88  C   UNK A   1     -11.501  17.340   2.871  1.00  0.00    -0.059 C 
ATOM     89  C   UNK A   1     -12.664  16.619   3.140  1.00  0.00    -0.058 C 
ATOM     90  C   UNK A   1     -12.850  15.346   2.597  1.00  0.00    -0.038 C 
ATOM     91  C   UNK A   1     -14.076  14.521   3.000  1.00  0.00    +0.019 C 
ATOM     92  C   UNK A   1     -11.812  14.818   1.775  1.00  0.00    -0.053 C 
ATOM     93  C   UNK A   1     -10.604  15.526   1.481  1.00  0.00    -0.022 C 
ATOM     94  C   UNK A   1      -9.490  14.968   0.533  1.00  0.00    +0.076 C 
ATOM     95  C   UNK A   1     -10.465  16.813   2.069  1.00  0.00    -0.046 C 
ATOM     96  C   UNK A   1      -9.266  17.693   1.827  1.00  0.00    -0.039 C 
ATOM     97  H   UNK A   1     -20.717  14.962   4.350  1.00  0.00    +0.060 HD
ATOM     98  H   UNK A   1     -20.999  16.121   1.502  1.00  0.00    +0.025 HD
ATOM     99  H   UNK A   1     -19.830  14.871   1.934  1.00  0.00    +0.025 HD
ATOM    100  H   UNK A   1     -21.543  14.520   2.041  1.00  0.00    +0.025 HD
ATOM    101  H   UNK A   1     -18.531  14.501   3.612  1.00  0.00    +0.067 HD
ATOM    102  H   UNK A   1     -16.107  15.598   5.138  1.00  0.00    +0.041 HD
ATOM    103  H   UNK A   1     -16.319  13.926   4.606  1.00  0.00    +0.041 HD
ATOM    104  H   UNK A   1     -17.394  12.156   6.154  1.00  0.00    +0.062 HD
ATOM    105  H   UNK A   1     -18.270  12.689   7.581  1.00  0.00    +0.062 HD
ATOM    106  H   UNK A   1     -16.690  10.440   7.548  1.00  0.00    +0.068 HD
ATOM    107  H   UNK A   1     -18.265   7.939   8.415  1.00  0.00    +0.059 HD
ATOM    108  H   UNK A   1     -18.590   9.559   9.054  1.00  0.00    +0.059 HD
ATOM    109  H   UNK A   1     -15.975   8.758   9.048  1.00  0.00    +0.210 HD
ATOM    110  H   UNK A   1     -14.723  10.273   6.005  1.00  0.00    +0.066 HD
ATOM    111  H   UNK A   1     -14.655  11.082   8.268  1.00  0.00    +0.036 HD
ATOM    112  H   UNK A   1     -13.151  11.403   7.420  1.00  0.00    +0.036 HD
ATOM    113  H   UNK A   1     -12.925   7.829   8.845  1.00  0.00    +0.084 HD
ATOM    114  H   UNK A   1     -11.266   8.044  10.748  1.00  0.00    +0.167 HD
ATOM    115  H   UNK A   1     -11.030  10.458  11.539  1.00  0.00    +0.104 HD
ATOM    116  H   UNK A   1     -13.980  10.798   3.598  1.00  0.00    +0.049 HD
ATOM    117  H   UNK A   1     -14.615   9.212   4.104  1.00  0.00    +0.049 HD
ATOM    118  H   UNK A   1     -13.957   8.399   2.031  1.00  0.00    +0.029 HD
ATOM    119  H   UNK A   1     -13.042   9.868   1.696  1.00  0.00    +0.029 HD
ATOM    120  H   UNK A   1     -11.249   8.280   1.992  1.00  0.00    +0.029 HD
ATOM    121  H   UNK A   1     -12.143   7.414   3.258  1.00  0.00    +0.029 HD
ATOM    122  H   UNK A   1     -10.667   8.801   4.598  1.00  0.00    +0.064 HD
ATOM    123  H   UNK A   1      -8.828  10.448   1.060  1.00  0.00    +0.067 HD
ATOM    124  H   UNK A   1      -7.652  12.953   1.810  1.00  0.00    +0.041 HD
ATOM    125  H   UNK A   1      -9.176  12.948   2.704  1.00  0.00    +0.041 HD
ATOM    126  H   UNK A   1      -4.488  10.709   1.576  1.00  0.00    +0.068 HD
ATOM    127  H   UNK A   1      -4.504   9.324   3.517  1.00  0.00    +0.059 HD
ATOM    128  H   UNK A   1      -3.434   8.423   2.441  1.00  0.00    +0.059 HD
ATOM    129  H   UNK A   1      -6.133   8.037   2.260  1.00  0.00    +0.210 HD
ATOM    130  H   UNK A   1      -3.158   9.764  -2.335  1.00  0.00    +0.065 HD
ATOM    131  H   UNK A   1      -4.137  12.247  -0.804  1.00  0.00    +0.026 HD
ATOM    132  H   UNK A   1      -5.193  10.970  -1.431  1.00  0.00    +0.026 HD
ATOM    133  H   UNK A   1      -4.301  11.965  -2.565  1.00  0.00    +0.026 HD
ATOM    134  H   UNK A   1      -2.607  13.602  -1.792  1.00  0.00    +0.066 HD
ATOM    135  H   UNK A   1      -0.540  15.176  -2.932  1.00  0.00    +0.029 HD
ATOM    136  H   UNK A   1       0.233  13.624  -2.741  1.00  0.00    +0.029 HD
ATOM    137  H   UNK A   1      -0.110  13.628  -0.363  1.00  0.00    +0.029 HD
ATOM    138  H   UNK A   1       0.525  15.190  -0.832  1.00  0.00    +0.029 HD
ATOM    139  H   UNK A   1      -1.142  15.587   0.825  1.00  0.00    +0.049 HD
ATOM    140  H   UNK A   1      -2.294  14.504   0.106  1.00  0.00    +0.049 HD
ATOM    141  H   UNK A   1      -2.834  15.947  -1.516  1.00  0.00    +0.163 HD
ATOM    142  H   UNK A   1      -0.341  17.445   0.056  1.00  0.00    +0.191 HD
ATOM    143  H   UNK A   1      -3.254  18.120  -2.033  1.00  0.00    +0.159 HD
ATOM    144  H   UNK A   1      -2.493  17.227  -2.952  1.00  0.00    +0.159 HD
ATOM    145  H   UNK A   1      -4.145  16.574  -4.780  1.00  0.00    +0.066 HD
ATOM    146  H   UNK A   1      -6.134  15.456  -5.548  1.00  0.00    +0.036 HD
ATOM    147  H   UNK A   1      -4.799  14.343  -5.581  1.00  0.00    +0.036 HD
ATOM    148  H   UNK A   1      -5.946  14.122  -1.988  1.00  0.00    +0.084 HD
ATOM    149  H   UNK A   1      -7.567  12.194  -1.803  1.00  0.00    +0.167 HD
ATOM    150  H   UNK A   1      -8.345  11.396  -4.101  1.00  0.00    +0.104 HD
ATOM    151  H   UNK A   1      -8.757  17.214  -3.359  1.00  0.00    +0.067 HD
ATOM    152  H   UNK A   1      -7.266  15.798  -1.451  1.00  0.00    +0.041 HD
ATOM    153  H   UNK A   1      -7.757  17.241  -0.572  1.00  0.00    +0.041 HD
ATOM    154  H   UNK A   1      -7.907  21.146  -4.970  1.00  0.00    +0.064 HD
ATOM    155  H   UNK A   1      -6.744  20.909  -3.684  1.00  0.00    +0.064 HD
ATOM    156  H   UNK A   1      -8.484  21.000  -1.730  1.00  0.00    +0.296 HD
ATOM    157  H   UNK A   1     -11.396  18.329   3.304  1.00  0.00    +0.063 HD
ATOM    158  H   UNK A   1     -13.425  17.046   3.789  1.00  0.00    +0.063 HD
ATOM    159  H   UNK A   1     -14.109  13.598   2.411  1.00  0.00    +0.043 HD
ATOM    160  H   UNK A   1     -13.966  14.240   4.054  1.00  0.00    +0.043 HD
ATOM    161  H   UNK A   1     -11.943  13.809   1.381  1.00  0.00    +0.063 HD
ATOM    162  H   UNK A   1      -8.499  15.212   0.925  1.00  0.00    +0.058 HD
ATOM    163  H   UNK A   1      -8.330  17.133   1.896  1.00  0.00    +0.028 HD
ATOM    164  H   UNK A   1      -9.349  18.178   0.851  1.00  0.00    +0.028 HD
ATOM    165  H   UNK A   1      -9.196  18.485   2.584  1.00  0.00    +0.028 HD
ENDROOT
TORSDOF 0
ENDMDL
MODEL 3
REMARK VINA RESULT:      -3.0      2.599      3.742
REMARK  Generated by RDKit with Gasteiger charges
REMARK  --------------------------------------------------
ROOT
ATOM      1  N   UNK A   1     -20.817  13.034   4.360  1.00  0.00    -0.131 N 
ATOM      2  C   UNK A   1     -19.410  13.135   3.887  1.00  0.00    +0.121 C 
ATOM      3  C   UNK A   1     -19.413  12.739   2.418  1.00  0.00    -0.037 C 
ATOM      4  C   UNK A   1     -18.946  14.599   4.062  1.00  0.00    +0.262 C 
ATOM      5  O   UNK A   1     -19.793  15.507   4.014  1.00  0.00    -0.271 OA
ATOM      6  N   UNK A   1     -17.632  14.846   4.207  1.00  0.00    -0.236 N 
ATOM      7  C   UNK A   1     -16.617  13.733   4.197  1.00  0.00    +0.143 C 
ATOM      8  C   UNK A   1     -15.164  14.274   3.922  1.00  0.00    +0.025 C 
ATOM      9  S   UNK A   1     -14.849  15.047   2.241  1.00  0.00    -0.154 S 
ATOM     10  C   UNK A   1     -16.558  12.996   5.588  1.00  0.00    +0.267 C 
ATOM     11  O   UNK A   1     -16.600  13.609   6.658  1.00  0.00    -0.270 OA
ATOM     12  N   UNK A   1     -16.487  11.653   5.453  1.00  0.00    -0.239 N 
ATOM     13  C   UNK A   1     -15.282  11.067   6.111  1.00  0.00    +0.124 C 
ATOM     14  C   UNK A   1     -15.308   9.515   6.252  1.00  0.00    +0.263 C 
ATOM     15  O   UNK A   1     -16.231   8.924   6.827  1.00  0.00    -0.271 OA
ATOM     16  N   UNK A   1     -14.246   8.877   5.712  1.00  0.00    -0.234 N 
ATOM     17  C   UNK A   1     -12.955   9.061   6.447  1.00  0.00    +0.157 C 
ATOM     18  C   UNK A   1     -12.957   8.241   7.759  1.00  0.00    +0.075 C 
ATOM     19  O   UNK A   1     -11.808   8.520   8.585  1.00  0.00    -0.394 OA
ATOM     20  C   UNK A   1     -11.730   8.554   5.592  1.00  0.00    +0.269 C 
ATOM     21  O   UNK A   1     -11.799   7.587   4.831  1.00  0.00    -0.270 OA
ATOM     22  N   UNK A   1     -10.556   9.119   5.953  1.00  0.00    -0.236 N 
ATOM     23  C   UNK A   1     -10.342  10.516   5.436  1.00  0.00    +0.138 C 
ATOM     24  C   UNK A   1     -10.206  11.551   6.597  1.00  0.00    +0.023 C 
ATOM     25  C   UNK A   1      -9.088  11.390   7.598  1.00  0.00    +0.061 C 
ATOM     26  C   UNK A   1      -8.200  10.350   7.766  1.00  0.00    +0.024 C 
ATOM     27  N   UNK A   1      -7.278  10.787   8.660  1.00  0.00    -0.351 N 
ATOM     28  C   UNK A   1      -7.684  12.007   9.109  1.00  0.00    +0.092 C 
ATOM     29  N   UNK A   1      -8.802  12.385   8.534  1.00  0.00    -0.242 N 
ATOM     30  C   UNK A   1      -9.093  10.643   4.487  1.00  0.00    +0.248 C 
ATOM     31  O   UNK A   1      -7.960  10.287   4.841  1.00  0.00    -0.272 OA
ATOM     32  N   UNK A   1      -9.309  11.243   3.231  1.00  0.00    -0.329 N 
ATOM     33  C   UNK A   1     -10.483  10.851   2.464  1.00  0.00    +0.021 C 
ATOM     34  C   UNK A   1      -9.971  10.513   1.060  1.00  0.00    -0.033 C 
ATOM     35  C   UNK A   1      -8.448  10.465   1.207  1.00  0.00    -0.022 C 
ATOM     36  C   UNK A   1      -8.181  11.516   2.293  1.00  0.00    +0.113 C 
ATOM     37  C   UNK A   1      -8.175  12.934   1.584  1.00  0.00    +0.264 C 
ATOM     38  O   UNK A   1      -9.232  13.494   1.292  1.00  0.00    -0.271 OA
ATOM     39  N   UNK A   1      -6.920  13.345   1.318  1.00  0.00    -0.235 N 
ATOM     40  C   UNK A   1      -6.690  14.244   0.108  1.00  0.00    +0.143 C 
ATOM     41  C   UNK A   1      -7.494  15.600   0.110  1.00  0.00    +0.027 C 
ATOM     42  S   UNK A   1      -8.767  15.789  -1.273  1.00  0.00    -0.140 S 
ATOM     43  C   UNK A   1      -5.123  14.605   0.142  1.00  0.00    +0.267 C 
ATOM     44  O   UNK A   1      -4.652  15.259   1.082  1.00  0.00    -0.270 OA
ATOM     45  N   UNK A   1      -4.430  14.147  -0.938  1.00  0.00    -0.234 N 
ATOM     46  C   UNK A   1      -3.034  14.751  -1.098  1.00  0.00    +0.157 C 
ATOM     47  C   UNK A   1      -2.050  14.108  -0.093  1.00  0.00    +0.075 C 
ATOM     48  O   UNK A   1      -2.304  12.697   0.057  1.00  0.00    -0.394 OA
ATOM     49  C   UNK A   1      -2.389  14.595  -2.534  1.00  0.00    +0.269 C 
ATOM     50  O   UNK A   1      -2.427  13.538  -3.170  1.00  0.00    -0.270 OA
ATOM     51  N   UNK A   1      -1.687  15.700  -2.907  1.00  0.00    -0.236 N 
ATOM     52  C   UNK A   1      -2.211  16.337  -4.184  1.00  0.00    +0.131 C 
ATOM     53  C   UNK A   1      -3.702  16.678  -3.984  1.00  0.00    -0.033 C 
ATOM     54  C   UNK A   1      -1.400  17.643  -4.636  1.00  0.00    +0.266 C 
ATOM     55  O   UNK A   1      -0.280  17.926  -4.195  1.00  0.00    -0.270 OA
ATOM     56  N   UNK A   1      -1.980  18.324  -5.666  1.00  0.00    -0.236 N 
ATOM     57  C   UNK A   1      -2.750  19.538  -5.206  1.00  0.00    +0.134 C 
ATOM     58  C   UNK A   1      -1.809  20.759  -5.050  1.00  0.00    -0.020 C 
ATOM     59  C   UNK A   1      -1.489  21.134  -3.593  1.00  0.00    -0.033 C 
ATOM     60  C   UNK A   1      -2.675  21.227  -2.632  1.00  0.00    +0.018 C 
ATOM     61  N   UNK A   1      -3.803  21.955  -3.167  1.00  0.00    -0.357 N 
ATOM     62  C   UNK A   1      -3.896  23.245  -3.549  1.00  0.00    +0.185 C 
ATOM     63  N   UNK A   1      -3.167  24.210  -3.085  1.00  0.00    -0.270 N 
ATOM     64  N   UNK A   1      -4.904  23.421  -4.438  1.00  0.00    -0.370 N 
ATOM     65  C   UNK A   1      -3.944  19.999  -6.139  1.00  0.00    +0.266 C 
ATOM     66  O   UNK A   1      -3.831  20.106  -7.365  1.00  0.00    -0.270 OA
ATOM     67  N   UNK A   1      -4.984  20.423  -5.380  1.00  0.00    -0.236 N 
ATOM     68  C   UNK A   1      -6.361  20.506  -5.991  1.00  0.00    +0.140 C 
ATOM     69  C   UNK A   1      -6.806  19.237  -6.789  1.00  0.00    +0.023 C 
ATOM     70  C   UNK A   1      -6.991  17.940  -6.057  1.00  0.00    +0.061 C 
ATOM     71  C   UNK A   1      -6.780  17.669  -4.725  1.00  0.00    +0.024 C 
ATOM     72  N   UNK A   1      -7.071  16.351  -4.552  1.00  0.00    -0.351 N 
ATOM     73  C   UNK A   1      -7.439  15.857  -5.771  1.00  0.00    +0.092 C 
ATOM     74  N   UNK A   1      -7.419  16.780  -6.713  1.00  0.00    -0.242 N 
ATOM     75  C   UNK A   1      -7.412  21.001  -4.879  1.00  0.00    +0.267 C 
ATOM     76  O   UNK A   1      -7.052  21.674  -3.906  1.00  0.00    -0.270 OA
ATOM     77  N   UNK A   1      -8.687  20.732  -5.217  1.00  0.00    -0.235 N 
ATOM     78  C   UNK A   1      -9.716  20.479  -4.135  1.00  0.00    +0.143 C 
ATOM     79  C   UNK A   1      -9.221  19.642  -2.888  1.00  0.00    +0.027 C 
ATOM     80  S   UNK A   1     -10.341  18.165  -2.445  1.00  0.00    -0.140 S 
ATOM     81  C   UNK A   1     -10.469  21.801  -3.752  1.00  0.00    +0.267 C 
ATOM     82  O   UNK A   1     -10.330  22.401  -2.684  1.00  0.00    -0.270 OA
ATOM     83  N   UNK A   1     -11.400  22.181  -4.657  1.00  0.00    -0.238 N 
ATOM     84  C   UNK A   1     -11.362  23.619  -4.957  1.00  0.00    +0.140 C 
ATOM     85  C   UNK A   1     -12.275  24.454  -4.088  1.00  0.00    +0.325 C 
ATOM     86  O   UNK A   1     -12.935  25.414  -4.494  1.00  0.00    -0.250 OA
ATOM     87  O   UNK A   1     -12.265  24.112  -2.780  1.00  0.00    -0.480 OA
ATOM     88  C   UNK A   1     -11.948  18.663   1.929  1.00  0.00    -0.059 C 
ATOM     89  C   UNK A   1     -12.622  17.499   2.298  1.00  0.00    -0.058 C 
ATOM     90  C   UNK A   1     -12.323  16.283   1.680  1.00  0.00    -0.038 C 
ATOM     91  C   UNK A   1     -12.985  14.995   2.181  1.00  0.00    +0.019 C 
ATOM     92  C   UNK A   1     -11.309  16.279   0.679  1.00  0.00    -0.053 C 
ATOM     93  C   UNK A   1     -10.594  17.452   0.278  1.00  0.00    -0.022 C 
ATOM     94  C   UNK A   1      -9.521  17.457  -0.862  1.00  0.00    +0.076 C 
ATOM     95  C   UNK A   1     -10.933  18.659   0.947  1.00  0.00    -0.046 C 
ATOM     96  C   UNK A   1     -10.292  19.982   0.614  1.00  0.00    -0.039 C 
ATOM     97  H   UNK A   1     -18.839  12.439   4.487  1.00  0.00    +0.060 HD
ATOM     98  H   UNK A   1     -20.059  13.392   1.816  1.00  0.00    +0.025 HD
ATOM     99  H   UNK A   1     -18.410  12.782   1.971  1.00  0.00    +0.025 HD
ATOM    100  H   UNK A   1     -19.757  11.709   2.289  1.00  0.00    +0.025 HD
ATOM    101  H   UNK A   1     -16.823  13.001   3.412  1.00  0.00    +0.067 HD
ATOM    102  H   UNK A   1     -14.902  15.035   4.668  1.00  0.00    +0.041 HD
ATOM    103  H   UNK A   1     -14.451  13.449   4.031  1.00  0.00    +0.041 HD
ATOM    104  H   UNK A   1     -14.381  11.365   5.560  1.00  0.00    +0.062 HD
ATOM    105  H   UNK A   1     -15.155  11.435   7.136  1.00  0.00    +0.062 HD
ATOM    106  H   UNK A   1     -12.785  10.116   6.690  1.00  0.00    +0.068 HD
ATOM    107  H   UNK A   1     -12.954   7.166   7.555  1.00  0.00    +0.059 HD
ATOM    108  H   UNK A   1     -13.839   8.466   8.368  1.00  0.00    +0.059 HD
ATOM    109  H   UNK A   1     -11.176   8.903   7.927  1.00  0.00    +0.210 HD
ATOM    110  H   UNK A   1     -11.223  10.857   4.876  1.00  0.00    +0.066 HD
ATOM    111  H   UNK A   1     -11.142  11.582   7.167  1.00  0.00    +0.036 HD
ATOM    112  H   UNK A   1     -10.088  12.546   6.146  1.00  0.00    +0.036 HD
ATOM    113  H   UNK A   1      -8.104   9.419   7.217  1.00  0.00    +0.084 HD
ATOM    114  H   UNK A   1      -6.415  10.319   8.878  1.00  0.00    +0.167 HD
ATOM    115  H   UNK A   1      -7.124  12.578   9.830  1.00  0.00    +0.104 HD
ATOM    116  H   UNK A   1     -11.187  11.690   2.442  1.00  0.00    +0.049 HD
ATOM    117  H   UNK A   1     -10.979   9.980   2.897  1.00  0.00    +0.049 HD
ATOM    118  H   UNK A   1     -10.383   9.570   0.689  1.00  0.00    +0.029 HD
ATOM    119  H   UNK A   1     -10.265  11.297   0.354  1.00  0.00    +0.029 HD
ATOM    120  H   UNK A   1      -7.938  10.660   0.259  1.00  0.00    +0.029 HD
ATOM    121  H   UNK A   1      -8.147   9.471   1.560  1.00  0.00    +0.029 HD
ATOM    122  H   UNK A   1      -7.222  11.348   2.792  1.00  0.00    +0.064 HD
ATOM    123  H   UNK A   1      -6.887  13.687  -0.818  1.00  0.00    +0.067 HD
ATOM    124  H   UNK A   1      -6.809  16.443  -0.032  1.00  0.00    +0.041 HD
ATOM    125  H   UNK A   1      -8.010  15.753   1.064  1.00  0.00    +0.041 HD
ATOM    126  H   UNK A   1      -3.071  15.831  -0.899  1.00  0.00    +0.068 HD
ATOM    127  H   UNK A   1      -2.165  14.555   0.900  1.00  0.00    +0.059 HD
ATOM    128  H   UNK A   1      -1.003  14.235  -0.389  1.00  0.00    +0.059 HD
ATOM    129  H   UNK A   1      -3.257  12.698  -0.219  1.00  0.00    +0.210 HD
ATOM    130  H   UNK A   1      -2.124  15.626  -5.025  1.00  0.00    +0.065 HD
ATOM    131  H   UNK A   1      -3.816  17.399  -3.166  1.00  0.00    +0.026 HD
ATOM    132  H   UNK A   1      -4.302  15.795  -3.744  1.00  0.00    +0.026 HD
ATOM    133  H   UNK A   1      -4.128  17.099  -4.904  1.00  0.00    +0.026 HD
ATOM    134  H   UNK A   1      -3.212  19.304  -4.241  1.00  0.00    +0.066 HD
ATOM    135  H   UNK A   1      -2.250  21.645  -5.524  1.00  0.00    +0.029 HD
ATOM    136  H   UNK A   1      -0.860  20.592  -5.577  1.00  0.00    +0.029 HD
ATOM    137  H   UNK A   1      -0.775  20.411  -3.182  1.00  0.00    +0.029 HD
ATOM    138  H   UNK A   1      -0.968  22.099  -3.602  1.00  0.00    +0.029 HD
ATOM    139  H   UNK A   1      -2.345  21.695  -1.698  1.00  0.00    +0.049 HD
ATOM    140  H   UNK A   1      -3.014  20.225  -2.337  1.00  0.00    +0.049 HD
ATOM    141  H   UNK A   1      -4.385  21.304  -3.738  1.00  0.00    +0.163 HD
ATOM    142  H   UNK A   1      -2.567  23.727  -2.413  1.00  0.00    +0.191 HD
ATOM    143  H   UNK A   1      -5.783  23.074  -4.005  1.00  0.00    +0.159 HD
ATOM    144  H   UNK A   1      -4.873  22.622  -5.095  1.00  0.00    +0.159 HD
ATOM    145  H   UNK A   1      -6.353  21.332  -6.720  1.00  0.00    +0.066 HD
ATOM    146  H   UNK A   1      -7.756  19.461  -7.292  1.00  0.00    +0.036 HD
ATOM    147  H   UNK A   1      -6.096  19.053  -7.607  1.00  0.00    +0.036 HD
ATOM    148  H   UNK A   1      -6.427  18.298  -3.920  1.00  0.00    +0.084 HD
ATOM    149  H   UNK A   1      -6.996  15.850  -3.672  1.00  0.00    +0.167 HD
ATOM    150  H   UNK A   1      -7.716  14.823  -5.896  1.00  0.00    +0.104 HD
ATOM    151  H   UNK A   1     -10.484  19.849  -4.613  1.00  0.00    +0.067 HD
ATOM    152  H   UNK A   1      -8.236  19.211  -3.062  1.00  0.00    +0.041 HD
ATOM    153  H   UNK A   1      -9.153  20.276  -2.003  1.00  0.00    +0.041 HD
ATOM    154  H   UNK A   1     -11.701  23.774  -5.989  1.00  0.00    +0.064 HD
ATOM    155  H   UNK A   1     -10.356  24.057  -4.905  1.00  0.00    +0.064 HD
ATOM    156  H   UNK A   1     -11.617  23.343  -2.724  1.00  0.00    +0.296 HD
ATOM    157  H   UNK A   1     -12.213  19.591   2.425  1.00  0.00    +0.063 HD
ATOM    158  H   UNK A   1     -13.374  17.537   3.081  1.00  0.00    +0.063 HD
ATOM    159  H   UNK A   1     -12.710  14.161   1.527  1.00  0.00    +0.043 HD
ATOM    160  H   UNK A   1     -12.593  14.777   3.181  1.00  0.00    +0.043 HD
ATOM    161  H   UNK A   1     -11.052  15.322   0.223  1.00  0.00    +0.063 HD
ATOM    162  H   UNK A   1      -8.684  18.108  -0.594  1.00  0.00    +0.058 HD
ATOM    163  H   UNK A   1      -9.209  19.892   0.503  1.00  0.00    +0.028 HD
ATOM    164  H   UNK A   1     -10.736  20.394  -0.296  1.00  0.00    +0.028 HD
ATOM    165  H   UNK A   1     -10.450  20.712   1.418  1.00  0.00    +0.028 HD
ENDROOT
TORSDOF 0
ENDMDL
