MODEL 1
REMARK VINA RESULT:      14.5      0.000      0.000
REMARK  Generated by RDKit with Gasteiger charges
REMARK  --------------------------------------------------
ROOT
ATOM      1  N   UNK A   1     -22.404  13.649  -4.812  1.00  0.00    -0.131 N 
ATOM      2  C   UNK A   1     -21.497  14.042  -3.703  1.00  0.00    +0.121 C 
ATOM      3  C   UNK A   1     -22.404  14.402  -2.530  1.00  0.00    -0.037 C 
ATOM      4  C   UNK A   1     -20.524  12.864  -3.435  1.00  0.00    +0.262 C 
ATOM      5  O   UNK A   1     -20.400  11.932  -4.240  1.00  0.00    -0.271 OA
ATOM      6  N   UNK A   1     -19.950  12.900  -2.226  1.00  0.00    -0.236 N 
ATOM      7  C   UNK A   1     -18.713  13.786  -2.052  1.00  0.00    +0.143 C 
ATOM      8  C   UNK A   1     -17.606  13.357  -3.051  1.00  0.00    +0.025 C 
ATOM      9  S   UNK A   1     -15.907  14.085  -3.110  1.00  0.00    -0.154 S 
ATOM     10  C   UNK A   1     -18.983  15.319  -2.085  1.00  0.00    +0.267 C 
ATOM     11  O   UNK A   1     -19.043  15.924  -3.160  1.00  0.00    -0.270 OA
ATOM     12  N   UNK A   1     -19.254  15.843  -0.873  1.00  0.00    -0.236 N 
ATOM     13  C   UNK A   1     -18.172  16.745  -0.306  1.00  0.00    +0.135 C 
ATOM     14  C   UNK A   1     -18.595  18.286  -0.378  1.00  0.00    -0.012 C 
ATOM     15  C   UNK A   1     -18.288  19.079  -1.704  1.00  0.00    +0.031 C 
ATOM     16  C   UNK A   1     -18.661  20.621  -1.702  1.00  0.00    +0.242 C 
ATOM     17  O   UNK A   1     -19.379  21.109  -0.823  1.00  0.00    -0.273 OA
ATOM     18  C   UNK A   1     -17.945  16.303   1.255  1.00  0.00    +0.266 C 
ATOM     19  O   UNK A   1     -18.716  16.721   2.133  1.00  0.00    -0.270 OA
ATOM     20  N   UNK A   1     -18.147  21.288  -2.776  1.00  0.00    -0.238 N 
ATOM     21  C   UNK A   1     -17.972  22.787  -2.565  1.00  0.00    +0.138 C 
ATOM     22  C   UNK A   1     -16.796  23.050  -1.581  1.00  0.00    +0.004 C 
ATOM     23  C   UNK A   1     -16.982  24.291  -0.714  1.00  0.00    -0.045 C 
ATOM     24  C   UNK A   1     -16.280  25.470  -0.985  1.00  0.00    -0.059 C 
ATOM     25  C   UNK A   1     -16.445  26.594  -0.172  1.00  0.00    -0.062 C 
ATOM     26  C   UNK A   1     -17.314  26.548   0.919  1.00  0.00    -0.062 C 
ATOM     27  C   UNK A   1     -18.024  25.378   1.193  1.00  0.00    -0.062 C 
ATOM     28  C   UNK A   1     -17.860  24.257   0.377  1.00  0.00    -0.059 C 
ATOM     29  C   UNK A   1     -17.885  23.565  -3.951  1.00  0.00    +0.267 C 
ATOM     30  O   UNK A   1     -18.853  23.582  -4.724  1.00  0.00    -0.270 OA
ATOM     31  N   UNK A   1     -16.861  15.494   1.452  1.00  0.00    -0.236 N 
ATOM     32  C   UNK A   1     -16.593  14.998   2.885  1.00  0.00    +0.138 C 
ATOM     33  C   UNK A   1     -17.726  14.028   3.326  1.00  0.00    +0.004 C 
ATOM     34  C   UNK A   1     -18.171  14.177   4.775  1.00  0.00    -0.045 C 
ATOM     35  C   UNK A   1     -19.273  14.979   5.095  1.00  0.00    -0.059 C 
ATOM     36  C   UNK A   1     -19.682  15.128   6.421  1.00  0.00    -0.062 C 
ATOM     37  C   UNK A   1     -18.984  14.485   7.445  1.00  0.00    -0.062 C 
ATOM     38  C   UNK A   1     -17.868  13.705   7.137  1.00  0.00    -0.062 C 
ATOM     39  C   UNK A   1     -17.468  13.550   5.809  1.00  0.00    -0.059 C 
ATOM     40  C   UNK A   1     -15.217  14.162   3.029  1.00  0.00    +0.267 C 
ATOM     41  O   UNK A   1     -14.894  13.315   2.189  1.00  0.00    -0.270 OA
ATOM     42  N   UNK A   1     -16.769  24.295  -4.173  1.00  0.00    -0.235 N 
ATOM     43  C   UNK A   1     -15.736  23.588  -5.001  1.00  0.00    +0.143 C 
ATOM     44  C   UNK A   1     -16.211  23.365  -6.456  1.00  0.00    +0.058 C 
ATOM     45  C   UNK A   1     -16.868  22.035  -6.825  1.00  0.00    +0.220 C 
ATOM     46  O   UNK A   1     -17.146  21.769  -8.006  1.00  0.00    -0.275 OA
ATOM     47  N   UNK A   1     -17.097  21.121  -5.846  1.00  0.00    -0.370 N 
ATOM     48  C   UNK A   1     -14.389  24.412  -5.053  1.00  0.00    +0.267 C 
ATOM     49  O   UNK A   1     -14.181  25.317  -5.871  1.00  0.00    -0.270 OA
ATOM     50  N   UNK A   1     -14.567  14.386   4.209  1.00  0.00    -0.235 N 
ATOM     51  C   UNK A   1     -13.115  13.916   4.291  1.00  0.00    +0.143 C 
ATOM     52  C   UNK A   1     -12.169  15.144   4.162  1.00  0.00    +0.027 C 
ATOM     53  S   UNK A   1     -12.221  16.186   2.597  1.00  0.00    -0.140 S 
ATOM     54  C   UNK A   1     -12.857  13.013   5.637  1.00  0.00    +0.267 C 
ATOM     55  O   UNK A   1     -13.637  12.096   5.926  1.00  0.00    -0.270 OA
ATOM     56  N   UNK A   1     -13.525  23.989  -4.118  1.00  0.00    -0.236 N 
ATOM     57  C   UNK A   1     -12.097  23.887  -4.484  1.00  0.00    +0.136 C 
ATOM     58  C   UNK A   1     -11.277  24.768  -3.511  1.00  0.00    +0.004 C 
ATOM     59  C   UNK A   1      -9.817  24.929  -3.893  1.00  0.00    -0.045 C 
ATOM     60  C   UNK A   1      -8.870  24.034  -3.379  1.00  0.00    -0.055 C 
ATOM     61  C   UNK A   1      -7.541  24.090  -3.792  1.00  0.00    -0.020 C 
ATOM     62  C   UNK A   1      -7.154  25.058  -4.717  1.00  0.00    +0.115 C 
ATOM     63  O   UNK A   1      -5.869  25.077  -5.195  1.00  0.00    -0.508 OA
ATOM     64  C   UNK A   1      -8.068  25.979  -5.215  1.00  0.00    -0.020 C 
ATOM     65  C   UNK A   1      -9.406  25.906  -4.807  1.00  0.00    -0.055 C 
ATOM     66  C   UNK A   1     -11.525  22.425  -4.491  1.00  0.00    +0.248 C 
ATOM     67  O   UNK A   1     -10.811  22.089  -5.455  1.00  0.00    -0.272 OA
ATOM     68  N   UNK A   1     -11.694  13.272   6.318  1.00  0.00    -0.236 N 
ATOM     69  C   UNK A   1     -11.137  12.088   7.128  1.00  0.00    +0.138 C 
ATOM     70  C   UNK A   1     -10.417  11.094   6.169  1.00  0.00    +0.004 C 
ATOM     71  C   UNK A   1      -9.127  11.570   5.516  1.00  0.00    -0.045 C 
ATOM     72  C   UNK A   1      -7.886  11.338   6.124  1.00  0.00    -0.059 C 
ATOM     73  C   UNK A   1      -6.706  11.791   5.529  1.00  0.00    -0.062 C 
ATOM     74  C   UNK A   1      -6.755  12.490   4.323  1.00  0.00    -0.062 C 
ATOM     75  C   UNK A   1      -7.987  12.743   3.720  1.00  0.00    -0.062 C 
ATOM     76  C   UNK A   1      -9.163  12.279   4.310  1.00  0.00    -0.059 C 
ATOM     77  C   UNK A   1     -10.219  12.418   8.396  1.00  0.00    +0.267 C 
ATOM     78  O   UNK A   1      -9.895  13.567   8.710  1.00  0.00    -0.270 OA
ATOM     79  N   UNK A   1     -11.700  21.580  -3.398  1.00  0.00    -0.329 N 
ATOM     80  C   UNK A   1     -12.822  21.714  -2.466  1.00  0.00    +0.021 C 
ATOM     81  C   UNK A   1     -12.879  20.399  -1.707  1.00  0.00    -0.033 C 
ATOM     82  C   UNK A   1     -12.418  19.418  -2.773  1.00  0.00    -0.022 C 
ATOM     83  C   UNK A   1     -11.230  20.166  -3.406  1.00  0.00    +0.113 C 
ATOM     84  C   UNK A   1      -9.892  19.870  -2.606  1.00  0.00    +0.264 C 
ATOM     85  O   UNK A   1      -9.154  20.751  -2.164  1.00  0.00    -0.271 OA
ATOM     86  N   UNK A   1      -9.883  11.290   9.103  1.00  0.00    -0.236 N 
ATOM     87  C   UNK A   1      -9.244  11.523  10.436  1.00  0.00    +0.131 C 
ATOM     88  C   UNK A   1     -10.333  11.910  11.452  1.00  0.00    -0.033 C 
ATOM     89  C   UNK A   1      -8.459  10.272  10.976  1.00  0.00    +0.266 C 
ATOM     90  O   UNK A   1      -8.457   9.154  10.458  1.00  0.00    -0.271 OA
ATOM     91  N   UNK A   1      -9.617  18.551  -2.588  1.00  0.00    -0.233 N 
ATOM     92  C   UNK A   1      -9.207  18.005  -1.254  1.00  0.00    +0.160 C 
ATOM     93  C   UNK A   1     -10.305  17.074  -0.626  1.00  0.00    +0.028 C 
ATOM     94  S   UNK A   1      -9.723  16.204   0.909  1.00  0.00    -0.140 S 
ATOM     95  C   UNK A   1      -7.920  17.237  -1.526  1.00  0.00    +0.329 C 
ATOM     96  O   UNK A   1      -6.771  17.580  -1.261  1.00  0.00    -0.250 OA
ATOM     97  O   UNK A   1      -8.085  16.056  -2.169  1.00  0.00    -0.480 OA
ATOM     98  N   UNK A   1      -7.791  10.536  12.121  1.00  0.00    -0.238 N 
ATOM     99  C   UNK A   1      -6.659   9.643  12.398  1.00  0.00    +0.140 C 
ATOM    100  C   UNK A   1      -7.020   8.338  13.076  1.00  0.00    +0.325 C 
ATOM    101  O   UNK A   1      -6.406   7.867  14.035  1.00  0.00    -0.250 OA
ATOM    102  O   UNK A   1      -8.026   7.658  12.483  1.00  0.00    -0.480 OA
ATOM    103  C   UNK A   1     -11.897  12.668  -1.437  1.00  0.00    -0.059 C 
ATOM    104  C   UNK A   1     -13.228  12.925  -1.757  1.00  0.00    -0.058 C 
ATOM    105  C   UNK A   1     -13.936  13.934  -1.096  1.00  0.00    -0.038 C 
ATOM    106  C   UNK A   1     -15.442  14.132  -1.318  1.00  0.00    +0.019 C 
ATOM    107  C   UNK A   1     -13.263  14.676  -0.095  1.00  0.00    -0.053 C 
ATOM    108  C   UNK A   1     -11.917  14.425   0.275  1.00  0.00    -0.022 C 
ATOM    109  C   UNK A   1     -11.241  15.171   1.438  1.00  0.00    +0.076 C 
ATOM    110  C   UNK A   1     -11.241  13.381  -0.417  1.00  0.00    -0.046 C 
ATOM    111  C   UNK A   1      -9.827  12.979  -0.102  1.00  0.00    -0.039 C 
ATOM    112  H   UNK A   1     -20.933  14.906  -4.055  1.00  0.00    +0.060 HD
ATOM    113  H   UNK A   1     -22.973  13.528  -2.188  1.00  0.00    +0.025 HD
ATOM    114  H   UNK A   1     -21.833  14.770  -1.673  1.00  0.00    +0.025 HD
ATOM    115  H   UNK A   1     -23.116  15.189  -2.805  1.00  0.00    +0.025 HD
ATOM    116  H   UNK A   1     -18.313  13.563  -1.050  1.00  0.00    +0.067 HD
ATOM    117  H   UNK A   1     -17.978  13.496  -4.073  1.00  0.00    +0.041 HD
ATOM    118  H   UNK A   1     -17.445  12.277  -2.941  1.00  0.00    +0.041 HD
ATOM    119  H   UNK A   1     -17.210  16.650  -0.822  1.00  0.00    +0.066 HD
ATOM    120  H   UNK A   1     -18.076  18.815   0.433  1.00  0.00    +0.030 HD
ATOM    121  H   UNK A   1     -19.665  18.378  -0.154  1.00  0.00    +0.030 HD
ATOM    122  H   UNK A   1     -18.831  18.614  -2.533  1.00  0.00    +0.037 HD
ATOM    123  H   UNK A   1     -17.211  18.998  -1.899  1.00  0.00    +0.037 HD
ATOM    124  H   UNK A   1     -18.893  23.199  -2.120  1.00  0.00    +0.066 HD
ATOM    125  H   UNK A   1     -15.834  23.102  -2.102  1.00  0.00    +0.034 HD
ATOM    126  H   UNK A   1     -16.674  22.210  -0.883  1.00  0.00    +0.034 HD
ATOM    127  H   UNK A   1     -15.616  25.491  -1.850  1.00  0.00    +0.063 HD
ATOM    128  H   UNK A   1     -15.890  27.494  -0.411  1.00  0.00    +0.062 HD
ATOM    129  H   UNK A   1     -17.443  27.419   1.549  1.00  0.00    +0.062 HD
ATOM    130  H   UNK A   1     -18.706  25.314   2.033  1.00  0.00    +0.062 HD
ATOM    131  H   UNK A   1     -18.409  23.333   0.571  1.00  0.00    +0.063 HD
ATOM    132  H   UNK A   1     -16.529  15.867   3.557  1.00  0.00    +0.066 HD
ATOM    133  H   UNK A   1     -17.423  12.982   3.174  1.00  0.00    +0.034 HD
ATOM    134  H   UNK A   1     -18.620  14.138   2.697  1.00  0.00    +0.034 HD
ATOM    135  H   UNK A   1     -19.765  15.519   4.284  1.00  0.00    +0.063 HD
ATOM    136  H   UNK A   1     -20.516  15.786   6.641  1.00  0.00    +0.062 HD
ATOM    137  H   UNK A   1     -19.265  14.632   8.478  1.00  0.00    +0.062 HD
ATOM    138  H   UNK A   1     -17.260  13.249   7.911  1.00  0.00    +0.062 HD
ATOM    139  H   UNK A   1     -16.555  12.997   5.570  1.00  0.00    +0.063 HD
ATOM    140  H   UNK A   1     -15.479  22.615  -4.559  1.00  0.00    +0.066 HD
ATOM    141  H   UNK A   1     -15.341  23.417  -7.127  1.00  0.00    +0.039 HD
ATOM    142  H   UNK A   1     -16.896  24.163  -6.767  1.00  0.00    +0.039 HD
ATOM    143  H   UNK A   1     -17.194  21.437  -4.870  1.00  0.00    +0.159 HD
ATOM    144  H   UNK A   1     -17.666  20.312  -6.022  1.00  0.00    +0.159 HD
ATOM    145  H   UNK A   1     -12.856  13.221   3.479  1.00  0.00    +0.067 HD
ATOM    146  H   UNK A   1     -11.123  14.851   4.299  1.00  0.00    +0.041 HD
ATOM    147  H   UNK A   1     -12.393  15.844   4.974  1.00  0.00    +0.041 HD
ATOM    148  H   UNK A   1     -11.922  24.261  -5.504  1.00  0.00    +0.066 HD
ATOM    149  H   UNK A   1     -11.330  24.378  -2.485  1.00  0.00    +0.034 HD
ATOM    150  H   UNK A   1     -11.721  25.772  -3.456  1.00  0.00    +0.034 HD
ATOM    151  H   UNK A   1      -9.194  23.233  -2.710  1.00  0.00    +0.063 HD
ATOM    152  H   UNK A   1      -6.863  23.336  -3.407  1.00  0.00    +0.066 HD
ATOM    153  H   UNK A   1      -5.540  24.181  -4.991  1.00  0.00    +0.293 HD
ATOM    154  H   UNK A   1      -7.766  26.712  -5.951  1.00  0.00    +0.066 HD
ATOM    155  H   UNK A   1     -10.151  26.570  -5.235  1.00  0.00    +0.063 HD
ATOM    156  H   UNK A   1     -11.985  11.547   7.578  1.00  0.00    +0.066 HD
ATOM    157  H   UNK A   1     -10.192  10.161   6.703  1.00  0.00    +0.034 HD
ATOM    158  H   UNK A   1     -11.106  10.790   5.372  1.00  0.00    +0.034 HD
ATOM    159  H   UNK A   1      -7.865  10.847   7.095  1.00  0.00    +0.063 HD
ATOM    160  H   UNK A   1      -5.766  11.631   6.040  1.00  0.00    +0.062 HD
ATOM    161  H   UNK A   1      -5.852  12.883   3.876  1.00  0.00    +0.062 HD
ATOM    162  H   UNK A   1      -8.056  13.339   2.814  1.00  0.00    +0.062 HD
ATOM    163  H   UNK A   1     -10.135  12.515   3.869  1.00  0.00    +0.063 HD
ATOM    164  H   UNK A   1     -12.680  22.573  -1.805  1.00  0.00    +0.049 HD
ATOM    165  H   UNK A   1     -13.750  21.817  -3.033  1.00  0.00    +0.049 HD
ATOM    166  H   UNK A   1     -13.879  20.179  -1.326  1.00  0.00    +0.029 HD
ATOM    167  H   UNK A   1     -12.181  20.407  -0.862  1.00  0.00    +0.029 HD
ATOM    168  H   UNK A   1     -12.190  18.434  -2.357  1.00  0.00    +0.029 HD
ATOM    169  H   UNK A   1     -13.211  19.286  -3.519  1.00  0.00    +0.029 HD
ATOM    170  H   UNK A   1     -11.070  19.840  -4.440  1.00  0.00    +0.064 HD
ATOM    171  H   UNK A   1      -8.501  12.330  10.370  1.00  0.00    +0.065 HD
ATOM    172  H   UNK A   1     -10.945  12.748  11.097  1.00  0.00    +0.026 HD
ATOM    173  H   UNK A   1      -9.893  12.212  12.407  1.00  0.00    +0.026 HD
ATOM    174  H   UNK A   1     -11.009  11.071  11.652  1.00  0.00    +0.026 HD
ATOM    175  H   UNK A   1      -8.962  18.783  -0.519  1.00  0.00    +0.068 HD
ATOM    176  H   UNK A   1     -11.185  17.672  -0.361  1.00  0.00    +0.041 HD
ATOM    177  H   UNK A   1     -10.610  16.317  -1.355  1.00  0.00    +0.041 HD
ATOM    178  H   UNK A   1      -7.168  15.752  -2.220  1.00  0.00    +0.296 HD
ATOM    179  H   UNK A   1      -5.964  10.159  13.072  1.00  0.00    +0.064 HD
ATOM    180  H   UNK A   1      -6.067   9.402  11.505  1.00  0.00    +0.064 HD
ATOM    181  H   UNK A   1      -8.337   8.243  11.721  1.00  0.00    +0.296 HD
ATOM    182  H   UNK A   1     -11.386  11.870  -1.963  1.00  0.00    +0.063 HD
ATOM    183  H   UNK A   1     -13.732  12.315  -2.496  1.00  0.00    +0.063 HD
ATOM    184  H   UNK A   1     -15.975  13.352  -0.768  1.00  0.00    +0.043 HD
ATOM    185  H   UNK A   1     -15.730  15.115  -0.953  1.00  0.00    +0.043 HD
ATOM    186  H   UNK A   1     -13.858  15.404   0.466  1.00  0.00    +0.063 HD
ATOM    187  H   UNK A   1     -10.804  14.396   2.073  1.00  0.00    +0.058 HD
ATOM    188  H   UNK A   1      -9.600  11.985  -0.504  1.00  0.00    +0.028 HD
ATOM    189  H   UNK A   1      -9.117  13.680  -0.549  1.00  0.00    +0.028 HD
ATOM    190  H   UNK A   1      -9.660  12.906   0.975  1.00  0.00    +0.028 HD
ENDROOT
TORSDOF 0
ENDMDL
