REMARK  Generated by RDKit with Gasteiger charges
REMARK  --------------------------------------------------
ROOT
ATOM      1  N   UNK A   1     -16.425  -2.380   5.154  1.00  0.00    -0.131 N 
ATOM      2  C   UNK A   1     -16.031  -2.259   3.738  1.00  0.00    +0.121 C 
ATOM      3  C   UNK A   1     -16.241  -3.623   3.088  1.00  0.00    -0.037 C 
ATOM      4  C   UNK A   1     -16.898  -1.171   3.062  1.00  0.00    +0.262 C 
ATOM      5  O   UNK A   1     -17.907  -0.721   3.609  1.00  0.00    -0.271 OA
ATOM      6  N   UNK A   1     -16.532  -0.895   1.802  1.00  0.00    -0.236 N 
ATOM      7  C   UNK A   1     -15.207  -0.203   1.645  1.00  0.00    +0.141 C 
ATOM      8  C   UNK A   1     -14.313  -0.930   0.597  1.00  0.00    +0.025 C 
ATOM      9  S   UNK A   1     -13.158  -2.157   1.358  1.00  0.00    -0.154 S 
ATOM     10  C   UNK A   1     -15.369   1.256   1.115  1.00  0.00    +0.249 C 
ATOM     11  O   UNK A   1     -16.387   1.643   0.530  1.00  0.00    -0.272 OA
ATOM     12  N   UNK A   1     -14.283   2.099   1.326  1.00  0.00    -0.329 N 
ATOM     13  C   UNK A   1     -13.129   1.848   2.178  1.00  0.00    +0.021 C 
ATOM     14  C   UNK A   1     -12.349   3.158   2.234  1.00  0.00    -0.033 C 
ATOM     15  C   UNK A   1     -13.336   4.198   1.711  1.00  0.00    -0.022 C 
ATOM     16  C   UNK A   1     -14.153   3.412   0.679  1.00  0.00    +0.113 C 
ATOM     17  C   UNK A   1     -13.427   3.536  -0.707  1.00  0.00    +0.264 C 
ATOM     18  O   UNK A   1     -13.624   4.556  -1.377  1.00  0.00    -0.271 OA
ATOM     19  N   UNK A   1     -12.631   2.491  -0.957  1.00  0.00    -0.236 N 
ATOM     20  C   UNK A   1     -11.470   2.611  -1.896  1.00  0.00    +0.138 C 
ATOM     21  C   UNK A   1     -11.833   3.089  -3.325  1.00  0.00    +0.006 C 
ATOM     22  C   UNK A   1     -12.013   1.948  -4.302  1.00  0.00    -0.020 C 
ATOM     23  C   UNK A   1     -10.994   1.344  -5.011  1.00  0.00    +0.005 C 
ATOM     24  N   UNK A   1     -11.514   0.293  -5.702  1.00  0.00    -0.361 N 
ATOM     25  C   UNK A   1     -12.878   0.216  -5.511  1.00  0.00    +0.046 C 
ATOM     26  C   UNK A   1     -13.821  -0.694  -6.007  1.00  0.00    -0.038 C 
ATOM     27  C   UNK A   1     -15.139  -0.576  -5.545  1.00  0.00    -0.060 C 
ATOM     28  C   UNK A   1     -15.496   0.415  -4.631  1.00  0.00    -0.062 C 
ATOM     29  C   UNK A   1     -14.544   1.326  -4.164  1.00  0.00    -0.053 C 
ATOM     30  C   UNK A   1     -13.210   1.231  -4.610  1.00  0.00    +0.003 C 
ATOM     31  C   UNK A   1     -10.166   3.334  -1.383  1.00  0.00    +0.267 C 
ATOM     32  O   UNK A   1     -10.204   4.290  -0.605  1.00  0.00    -0.270 OA
ATOM     33  N   UNK A   1      -9.077   2.768  -1.955  1.00  0.00    -0.236 N 
ATOM     34  C   UNK A   1      -7.683   3.098  -1.468  1.00  0.00    +0.135 C 
ATOM     35  C   UNK A   1      -7.509   2.821   0.049  1.00  0.00    -0.014 C 
ATOM     36  C   UNK A   1      -8.028   1.450   0.459  1.00  0.00    -0.022 C 
ATOM     37  S   UNK A   1      -6.989   0.648   1.669  1.00  0.00    -0.242 S 
ATOM     38  C   UNK A   1      -7.846   0.766   3.211  1.00  0.00    -0.036 C 
ATOM     39  C   UNK A   1      -6.566   2.275  -2.307  1.00  0.00    +0.266 C 
ATOM     40  O   UNK A   1      -6.883   1.552  -3.259  1.00  0.00    -0.270 OA
ATOM     41  N   UNK A   1      -5.290   2.572  -1.942  1.00  0.00    -0.236 N 
ATOM     42  C   UNK A   1      -4.316   1.452  -1.542  1.00  0.00    +0.135 C 
ATOM     43  C   UNK A   1      -4.642   0.033  -2.076  1.00  0.00    -0.014 C 
ATOM     44  C   UNK A   1      -5.833  -0.703  -1.456  1.00  0.00    -0.022 C 
ATOM     45  S   UNK A   1      -5.594  -1.582   0.077  1.00  0.00    -0.242 S 
ATOM     46  C   UNK A   1      -3.966  -1.237   0.697  1.00  0.00    -0.036 C 
ATOM     47  C   UNK A   1      -2.794   1.770  -2.007  1.00  0.00    +0.266 C 
ATOM     48  O   UNK A   1      -2.566   2.215  -3.138  1.00  0.00    -0.270 OA
ATOM     49  N   UNK A   1      -1.847   1.410  -1.080  1.00  0.00    -0.235 N 
ATOM     50  C   UNK A   1      -0.370   1.655  -1.490  1.00  0.00    +0.143 C 
ATOM     51  C   UNK A   1      -0.105   3.182  -1.550  1.00  0.00    +0.022 C 
ATOM     52  S   UNK A   1       1.327   3.672  -2.598  1.00  0.00    -0.177 S 
ATOM     53  C   UNK A   1       0.719   1.037  -0.463  1.00  0.00    +0.267 C 
ATOM     54  O   UNK A   1       0.449   0.878   0.733  1.00  0.00    -0.270 OA
ATOM     55  N   UNK A   1       1.932   0.797  -1.056  1.00  0.00    -0.236 N 
ATOM     56  C   UNK A   1       3.114   0.405  -0.144  1.00  0.00    +0.138 C 
ATOM     57  C   UNK A   1       2.914  -0.998   0.490  1.00  0.00    +0.004 C 
ATOM     58  C   UNK A   1       2.907  -2.201  -0.436  1.00  0.00    -0.045 C 
ATOM     59  C   UNK A   1       4.083  -2.927  -0.666  1.00  0.00    -0.059 C 
ATOM     60  C   UNK A   1       4.080  -4.041  -1.506  1.00  0.00    -0.062 C 
ATOM     61  C   UNK A   1       2.899  -4.435  -2.138  1.00  0.00    -0.062 C 
ATOM     62  C   UNK A   1       1.728  -3.706  -1.934  1.00  0.00    -0.062 C 
ATOM     63  C   UNK A   1       1.733  -2.593  -1.089  1.00  0.00    -0.059 C 
ATOM     64  C   UNK A   1       4.589   0.493  -0.813  1.00  0.00    +0.267 C 
ATOM     65  O   UNK A   1       4.729   0.692  -2.023  1.00  0.00    -0.270 OA
ATOM     66  N   UNK A   1       5.605   0.337   0.099  1.00  0.00    -0.236 N 
ATOM     67  C   UNK A   1       7.052   0.607  -0.370  1.00  0.00    +0.134 C 
ATOM     68  C   UNK A   1       7.304   2.146  -0.312  1.00  0.00    -0.019 C 
ATOM     69  C   UNK A   1       7.819   2.844  -1.597  1.00  0.00    -0.045 C 
ATOM     70  C   UNK A   1       6.828   2.774  -2.758  1.00  0.00    -0.063 C 
ATOM     71  C   UNK A   1       9.193   2.363  -2.056  1.00  0.00    -0.063 C 
ATOM     72  C   UNK A   1       8.171  -0.152   0.554  1.00  0.00    +0.266 C 
ATOM     73  O   UNK A   1       7.849  -0.834   1.533  1.00  0.00    -0.270 OA
ATOM     74  N   UNK A   1       9.454   0.030   0.104  1.00  0.00    -0.236 N 
ATOM     75  C   UNK A   1      10.585  -0.665   0.885  1.00  0.00    +0.138 C 
ATOM     76  C   UNK A   1      10.534  -2.200   0.628  1.00  0.00    +0.004 C 
ATOM     77  C   UNK A   1      10.715  -3.074   1.862  1.00  0.00    -0.045 C 
ATOM     78  C   UNK A   1       9.599  -3.525   2.578  1.00  0.00    -0.059 C 
ATOM     79  C   UNK A   1       9.756  -4.315   3.718  1.00  0.00    -0.062 C 
ATOM     80  C   UNK A   1      11.035  -4.655   4.163  1.00  0.00    -0.062 C 
ATOM     81  C   UNK A   1      12.153  -4.194   3.470  1.00  0.00    -0.062 C 
ATOM     82  C   UNK A   1      11.992  -3.409   2.326  1.00  0.00    -0.059 C 
ATOM     83  C   UNK A   1      12.057  -0.170   0.438  1.00  0.00    +0.267 C 
ATOM     84  O   UNK A   1      12.289   0.232  -0.707  1.00  0.00    -0.270 OA
ATOM     85  N   UNK A   1      12.991  -0.328   1.425  1.00  0.00    -0.236 N 
ATOM     86  C   UNK A   1      14.430   0.043   1.069  1.00  0.00    +0.138 C 
ATOM     87  C   UNK A   1      14.554   1.597   0.979  1.00  0.00    +0.006 C 
ATOM     88  C   UNK A   1      15.876   2.065   0.424  1.00  0.00    -0.020 C 
ATOM     89  C   UNK A   1      17.025   2.253   1.166  1.00  0.00    +0.005 C 
ATOM     90  N   UNK A   1      18.078   2.242   0.296  1.00  0.00    -0.361 N 
ATOM     91  C   UNK A   1      17.629   2.403  -0.997  1.00  0.00    +0.046 C 
ATOM     92  C   UNK A   1      18.334   2.543  -2.201  1.00  0.00    -0.038 C 
ATOM     93  C   UNK A   1      17.591   2.552  -3.388  1.00  0.00    -0.060 C 
ATOM     94  C   UNK A   1      16.205   2.397  -3.369  1.00  0.00    -0.062 C 
ATOM     95  C   UNK A   1      15.520   2.237  -2.158  1.00  0.00    -0.053 C 
ATOM     96  C   UNK A   1      16.239   2.263  -0.946  1.00  0.00    +0.003 C 
ATOM     97  C   UNK A   1      15.479  -0.472   2.170  1.00  0.00    +0.267 C 
ATOM     98  O   UNK A   1      15.249  -0.384   3.382  1.00  0.00    -0.270 OA
ATOM     99  N   UNK A   1      16.656  -0.916   1.630  1.00  0.00    -0.235 N 
ATOM    100  C   UNK A   1      17.780  -1.078   2.616  1.00  0.00    +0.143 C 
ATOM    101  C   UNK A   1      17.644  -2.394   3.424  1.00  0.00    +0.022 C 
ATOM    102  S   UNK A   1      17.384  -3.921   2.437  1.00  0.00    -0.177 S 
ATOM    103  C   UNK A   1      19.217  -0.792   2.026  1.00  0.00    +0.267 C 
ATOM    104  O   UNK A   1      19.623   0.356   1.816  1.00  0.00    -0.270 OA
ATOM    105  N   UNK A   1      19.969  -1.897   1.862  1.00  0.00    -0.238 N 
ATOM    106  C   UNK A   1      21.355  -1.619   1.439  1.00  0.00    +0.140 C 
ATOM    107  C   UNK A   1      22.040  -2.960   1.242  1.00  0.00    +0.325 C 
ATOM    108  O   UNK A   1      23.238  -3.120   1.024  1.00  0.00    -0.250 OA
ATOM    109  O   UNK A   1      21.166  -3.996   1.325  1.00  0.00    -0.480 OA
ATOM    110  C   UNK A   1      -9.072  -4.008   2.162  1.00  0.00    -0.059 C 
ATOM    111  C   UNK A   1     -10.285  -3.577   1.619  1.00  0.00    -0.058 C 
ATOM    112  C   UNK A   1     -10.364  -2.347   0.970  1.00  0.00    -0.038 C 
ATOM    113  C   UNK A   1     -11.645  -1.784   0.372  1.00  0.00    +0.019 C 
ATOM    114  C   UNK A   1      -9.175  -1.602   0.823  1.00  0.00    -0.053 C 
ATOM    115  C   UNK A   1      -7.946  -1.969   1.408  1.00  0.00    -0.025 C 
ATOM    116  C   UNK A   1      -6.715  -1.064   1.343  1.00  0.00    +0.040 C 
ATOM    117  C   UNK A   1      -7.907  -3.219   2.078  1.00  0.00    -0.046 C 
ATOM    118  C   UNK A   1      -6.653  -3.733   2.735  1.00  0.00    -0.039 C 
ATOM    119  H   UNK A   1     -14.975  -1.981   3.727  1.00  0.00    +0.060 HD
ATOM    120  H   UNK A   1     -15.648  -4.394   3.593  1.00  0.00    +0.025 HD
ATOM    121  H   UNK A   1     -17.294  -3.927   3.126  1.00  0.00    +0.025 HD
ATOM    122  H   UNK A   1     -15.946  -3.620   2.033  1.00  0.00    +0.025 HD
ATOM    123  H   UNK A   1     -14.681  -0.129   2.602  1.00  0.00    +0.067 HD
ATOM    124  H   UNK A   1     -13.716  -0.217   0.024  1.00  0.00    +0.041 HD
ATOM    125  H   UNK A   1     -14.925  -1.476  -0.130  1.00  0.00    +0.041 HD
ATOM    126  H   UNK A   1     -12.524   1.032   1.778  1.00  0.00    +0.049 HD
ATOM    127  H   UNK A   1     -13.484   1.572   3.175  1.00  0.00    +0.049 HD
ATOM    128  H   UNK A   1     -11.466   3.101   1.590  1.00  0.00    +0.029 HD
ATOM    129  H   UNK A   1     -12.000   3.389   3.244  1.00  0.00    +0.029 HD
ATOM    130  H   UNK A   1     -13.987   4.521   2.533  1.00  0.00    +0.029 HD
ATOM    131  H   UNK A   1     -12.829   5.080   1.307  1.00  0.00    +0.029 HD
ATOM    132  H   UNK A   1     -15.151   3.848   0.547  1.00  0.00    +0.064 HD
ATOM    133  H   UNK A   1     -11.143   1.559  -1.992  1.00  0.00    +0.066 HD
ATOM    134  H   UNK A   1     -12.742   3.695  -3.355  1.00  0.00    +0.034 HD
ATOM    135  H   UNK A   1     -11.043   3.741  -3.722  1.00  0.00    +0.034 HD
ATOM    136  H   UNK A   1      -9.926   1.545  -4.978  1.00  0.00    +0.082 HD
ATOM    137  H   UNK A   1     -10.953  -0.370  -6.211  1.00  0.00    +0.166 HD
ATOM    138  H   UNK A   1     -13.527  -1.489  -6.681  1.00  0.00    +0.064 HD
ATOM    139  H   UNK A   1     -15.889  -1.287  -5.877  1.00  0.00    +0.062 HD
ATOM    140  H   UNK A   1     -16.506   0.474  -4.238  1.00  0.00    +0.062 HD
ATOM    141  H   UNK A   1     -14.792   2.072  -3.410  1.00  0.00    +0.063 HD
ATOM    142  H   UNK A   1      -7.468   4.160  -1.658  1.00  0.00    +0.066 HD
ATOM    143  H   UNK A   1      -8.044   3.582   0.630  1.00  0.00    +0.030 HD
ATOM    144  H   UNK A   1      -6.459   2.939   0.335  1.00  0.00    +0.030 HD
ATOM    145  H   UNK A   1      -9.022   1.550   0.905  1.00  0.00    +0.036 HD
ATOM    146  H   UNK A   1      -8.111   0.795  -0.400  1.00  0.00    +0.036 HD
ATOM    147  H   UNK A   1      -5.802   1.290   1.749  1.00  0.00    +0.083 HD
ATOM    148  H   UNK A   1      -7.337   0.139   3.944  1.00  0.00    +0.033 HD
ATOM    149  H   UNK A   1      -7.824   1.809   3.532  1.00  0.00    +0.033 HD
ATOM    150  H   UNK A   1      -8.879   0.439   3.081  1.00  0.00    +0.033 HD
ATOM    151  H   UNK A   1      -4.302   1.424  -0.444  1.00  0.00    +0.066 HD
ATOM    152  H   UNK A   1      -4.820   0.113  -3.157  1.00  0.00    +0.030 HD
ATOM    153  H   UNK A   1      -3.756  -0.608  -2.000  1.00  0.00    +0.030 HD
ATOM    154  H   UNK A   1      -6.712  -0.091  -1.363  1.00  0.00    +0.036 HD
ATOM    155  H   UNK A   1      -6.109  -1.507  -2.151  1.00  0.00    +0.036 HD
ATOM    156  H   UNK A   1      -5.714  -2.909  -0.145  1.00  0.00    +0.083 HD
ATOM    157  H   UNK A   1      -3.809  -1.859   1.582  1.00  0.00    +0.033 HD
ATOM    158  H   UNK A   1      -3.893  -0.187   0.976  1.00  0.00    +0.033 HD
ATOM    159  H   UNK A   1      -3.227  -1.502  -0.059  1.00  0.00    +0.033 HD
ATOM    160  H   UNK A   1      -0.198   1.183  -2.469  1.00  0.00    +0.067 HD
ATOM    161  H   UNK A   1       0.088   3.570  -0.541  1.00  0.00    +0.041 HD
ATOM    162  H   UNK A   1      -0.960   3.741  -1.938  1.00  0.00    +0.041 HD
ATOM    163  H   UNK A   1       2.084   2.620  -2.195  1.00  0.00    +0.102 HD
ATOM    164  H   UNK A   1       3.151   1.141   0.675  1.00  0.00    +0.066 HD
ATOM    165  H   UNK A   1       1.982  -1.022   1.068  1.00  0.00    +0.034 HD
ATOM    166  H   UNK A   1       3.691  -1.163   1.249  1.00  0.00    +0.034 HD
ATOM    167  H   UNK A   1       5.011  -2.572  -0.213  1.00  0.00    +0.063 HD
ATOM    168  H   UNK A   1       5.014  -4.560  -1.684  1.00  0.00    +0.062 HD
ATOM    169  H   UNK A   1       2.902  -5.280  -2.813  1.00  0.00    +0.062 HD
ATOM    170  H   UNK A   1       0.808  -3.958  -2.452  1.00  0.00    +0.062 HD
ATOM    171  H   UNK A   1       0.836  -1.984  -0.962  1.00  0.00    +0.063 HD
ATOM    172  H   UNK A   1       7.195   0.212  -1.385  1.00  0.00    +0.066 HD
ATOM    173  H   UNK A   1       6.380   2.667  -0.024  1.00  0.00    +0.030 HD
ATOM    174  H   UNK A   1       8.013   2.374   0.497  1.00  0.00    +0.030 HD
ATOM    175  H   UNK A   1       7.927   3.908  -1.343  1.00  0.00    +0.030 HD
ATOM    176  H   UNK A   1       6.742   1.758  -3.158  1.00  0.00    +0.023 HD
ATOM    177  H   UNK A   1       7.156   3.421  -3.581  1.00  0.00    +0.023 HD
ATOM    178  H   UNK A   1       5.838   3.119  -2.446  1.00  0.00    +0.023 HD
ATOM    179  H   UNK A   1       9.549   2.967  -2.899  1.00  0.00    +0.023 HD
ATOM    180  H   UNK A   1       9.168   1.321  -2.390  1.00  0.00    +0.023 HD
ATOM    181  H   UNK A   1       9.930   2.462  -1.251  1.00  0.00    +0.023 HD
ATOM    182  H   UNK A   1      10.478  -0.435   1.956  1.00  0.00    +0.066 HD
ATOM    183  H   UNK A   1      11.298  -2.493  -0.105  1.00  0.00    +0.034 HD
ATOM    184  H   UNK A   1       9.586  -2.493   0.159  1.00  0.00    +0.034 HD
ATOM    185  H   UNK A   1       8.608  -3.206   2.249  1.00  0.00    +0.063 HD
ATOM    186  H   UNK A   1       8.874  -4.623   4.268  1.00  0.00    +0.062 HD
ATOM    187  H   UNK A   1      11.161  -5.233   5.068  1.00  0.00    +0.062 HD
ATOM    188  H   UNK A   1      13.160  -4.391   3.823  1.00  0.00    +0.062 HD
ATOM    189  H   UNK A   1      12.864  -2.997   1.817  1.00  0.00    +0.063 HD
ATOM    190  H   UNK A   1      14.710  -0.415   0.109  1.00  0.00    +0.066 HD
ATOM    191  H   UNK A   1      14.420   2.032   1.979  1.00  0.00    +0.034 HD
ATOM    192  H   UNK A   1      13.756   2.023   0.358  1.00  0.00    +0.034 HD
ATOM    193  H   UNK A   1      17.185   2.092   2.224  1.00  0.00    +0.082 HD
ATOM    194  H   UNK A   1      19.005   1.944   0.580  1.00  0.00    +0.166 HD
ATOM    195  H   UNK A   1      19.414   2.601  -2.205  1.00  0.00    +0.064 HD
ATOM    196  H   UNK A   1      18.106   2.638  -4.338  1.00  0.00    +0.062 HD
ATOM    197  H   UNK A   1      15.636   2.353  -4.293  1.00  0.00    +0.062 HD
ATOM    198  H   UNK A   1      14.448   2.046  -2.130  1.00  0.00    +0.063 HD
ATOM    199  H   UNK A   1      17.717  -0.284   3.379  1.00  0.00    +0.067 HD
ATOM    200  H   UNK A   1      18.519  -2.553   4.065  1.00  0.00    +0.041 HD
ATOM    201  H   UNK A   1      16.782  -2.327   4.095  1.00  0.00    +0.041 HD
ATOM    202  H   UNK A   1      16.567  -3.274   1.574  1.00  0.00    +0.102 HD
ATOM    203  H   UNK A   1      21.404  -1.087   0.482  1.00  0.00    +0.064 HD
ATOM    204  H   UNK A   1      21.917  -1.063   2.197  1.00  0.00    +0.064 HD
ATOM    205  H   UNK A   1      20.299  -3.515   1.521  1.00  0.00    +0.296 HD
ATOM    206  H   UNK A   1      -9.043  -4.965   2.671  1.00  0.00    +0.063 HD
ATOM    207  H   UNK A   1     -11.165  -4.203   1.718  1.00  0.00    +0.063 HD
ATOM    208  H   UNK A   1     -11.551  -0.694   0.309  1.00  0.00    +0.043 HD
ATOM    209  H   UNK A   1     -11.772  -2.183  -0.639  1.00  0.00    +0.043 HD
ATOM    210  H   UNK A   1      -9.243  -0.689   0.243  1.00  0.00    +0.063 HD
ATOM    211  H   UNK A   1      -6.136  -1.298   2.247  1.00  0.00    +0.055 HD
ATOM    212  H   UNK A   1      -6.382  -3.101   3.586  1.00  0.00    +0.028 HD
ATOM    213  H   UNK A   1      -6.791  -4.752   3.117  1.00  0.00    +0.028 HD
ATOM    214  H   UNK A   1      -5.825  -3.774   2.023  1.00  0.00    +0.028 HD
ENDROOT
TORSDOF 0