REMARK  Generated by RDKit with Gasteiger charges
REMARK  --------------------------------------------------
ROOT
ATOM      1  N   UNK A   1       4.381   5.326   6.815  1.00  0.00    -0.131 N 
ATOM      2  C   UNK A   1       4.403   4.788   5.439  1.00  0.00    +0.121 C 
ATOM      3  C   UNK A   1       3.990   5.915   4.494  1.00  0.00    -0.037 C 
ATOM      4  C   UNK A   1       5.775   4.114   5.210  1.00  0.00    +0.262 C 
ATOM      5  O   UNK A   1       6.252   3.343   6.053  1.00  0.00    -0.271 OA
ATOM      6  N   UNK A   1       6.334   4.465   4.051  1.00  0.00    -0.236 N 
ATOM      7  C   UNK A   1       6.473   3.328   3.054  1.00  0.00    +0.143 C 
ATOM      8  C   UNK A   1       5.198   3.107   2.143  1.00  0.00    +0.025 C 
ATOM      9  S   UNK A   1       3.737   2.310   2.982  1.00  0.00    -0.154 S 
ATOM     10  C   UNK A   1       7.672   3.745   2.102  1.00  0.00    +0.267 C 
ATOM     11  O   UNK A   1       7.469   4.562   1.195  1.00  0.00    -0.270 OA
ATOM     12  N   UNK A   1       8.911   3.382   2.494  1.00  0.00    -0.235 N 
ATOM     13  C   UNK A   1       9.448   1.996   2.313  1.00  0.00    +0.143 C 
ATOM     14  C   UNK A   1       8.932   0.977   3.367  1.00  0.00    +0.058 C 
ATOM     15  C   UNK A   1       9.335   1.341   4.802  1.00  0.00    +0.220 C 
ATOM     16  O   UNK A   1       9.922   0.575   5.576  1.00  0.00    -0.275 OA
ATOM     17  N   UNK A   1       9.003   2.617   5.208  1.00  0.00    -0.370 N 
ATOM     18  C   UNK A   1       9.861   1.243   1.009  1.00  0.00    +0.267 C 
ATOM     19  O   UNK A   1      10.940   0.623   1.040  1.00  0.00    -0.270 OA
ATOM     20  N   UNK A   1       8.994   1.257  -0.020  1.00  0.00    -0.236 N 
ATOM     21  C   UNK A   1       8.689  -0.118  -0.643  1.00  0.00    +0.136 C 
ATOM     22  C   UNK A   1       7.671  -0.846   0.301  1.00  0.00    -0.015 C 
ATOM     23  C   UNK A   1       6.268  -0.243   0.233  1.00  0.00    -0.060 C 
ATOM     24  C   UNK A   1       7.620  -2.368   0.133  1.00  0.00    -0.060 C 
ATOM     25  C   UNK A   1       8.220  -0.009  -2.181  1.00  0.00    +0.267 C 
ATOM     26  O   UNK A   1       8.494   0.976  -2.875  1.00  0.00    -0.270 OA
ATOM     27  N   UNK A   1       7.698  -1.169  -2.671  1.00  0.00    -0.236 N 
ATOM     28  C   UNK A   1       6.548  -1.001  -3.653  1.00  0.00    +0.131 C 
ATOM     29  C   UNK A   1       7.115  -0.806  -5.068  1.00  0.00    -0.033 C 
ATOM     30  C   UNK A   1       5.546  -2.242  -3.726  1.00  0.00    +0.266 C 
ATOM     31  O   UNK A   1       5.943  -3.404  -3.574  1.00  0.00    -0.270 OA
ATOM     32  N   UNK A   1       4.281  -1.872  -4.098  1.00  0.00    -0.236 N 
ATOM     33  C   UNK A   1       3.138  -2.676  -3.472  1.00  0.00    +0.138 C 
ATOM     34  C   UNK A   1       3.006  -2.327  -1.965  1.00  0.00    +0.006 C 
ATOM     35  C   UNK A   1       2.399  -3.391  -1.073  1.00  0.00    -0.020 C 
ATOM     36  C   UNK A   1       1.309  -4.197  -1.343  1.00  0.00    +0.005 C 
ATOM     37  N   UNK A   1       0.962  -4.861  -0.204  1.00  0.00    -0.361 N 
ATOM     38  C   UNK A   1       1.870  -4.613   0.796  1.00  0.00    +0.046 C 
ATOM     39  C   UNK A   1       1.933  -5.080   2.119  1.00  0.00    -0.038 C 
ATOM     40  C   UNK A   1       2.972  -4.594   2.926  1.00  0.00    -0.060 C 
ATOM     41  C   UNK A   1       3.897  -3.674   2.436  1.00  0.00    -0.062 C 
ATOM     42  C   UNK A   1       3.807  -3.224   1.116  1.00  0.00    -0.053 C 
ATOM     43  C   UNK A   1       2.785  -3.698   0.274  1.00  0.00    +0.003 C 
ATOM     44  C   UNK A   1       1.721  -2.615  -4.258  1.00  0.00    +0.267 C 
ATOM     45  O   UNK A   1       1.484  -3.489  -5.105  1.00  0.00    -0.270 OA
ATOM     46  N   UNK A   1       0.877  -1.609  -3.899  1.00  0.00    -0.235 N 
ATOM     47  C   UNK A   1      -0.636  -1.909  -3.813  1.00  0.00    +0.143 C 
ATOM     48  C   UNK A   1      -1.267  -1.068  -2.609  1.00  0.00    +0.027 C 
ATOM     49  S   UNK A   1      -1.173  -1.818  -0.885  1.00  0.00    -0.140 S 
ATOM     50  C   UNK A   1      -1.494  -1.507  -5.116  1.00  0.00    +0.267 C 
ATOM     51  O   UNK A   1      -1.130  -0.637  -5.915  1.00  0.00    -0.270 OA
ATOM     52  N   UNK A   1      -2.669  -2.208  -5.200  1.00  0.00    -0.233 N 
ATOM     53  C   UNK A   1      -3.757  -1.591  -6.090  1.00  0.00    +0.160 C 
ATOM     54  C   UNK A   1      -3.393  -1.805  -7.595  1.00  0.00    +0.083 C 
ATOM     55  C   UNK A   1      -4.513  -1.505  -8.580  1.00  0.00    -0.036 C 
ATOM     56  O   UNK A   1      -2.922  -3.153  -7.823  1.00  0.00    -0.391 OA
ATOM     57  C   UNK A   1      -5.204  -2.199  -5.808  1.00  0.00    +0.269 C 
ATOM     58  O   UNK A   1      -5.425  -3.416  -5.863  1.00  0.00    -0.270 OA
ATOM     59  N   UNK A   1      -6.149  -1.229  -5.629  1.00  0.00    -0.236 N 
ATOM     60  C   UNK A   1      -7.319  -1.618  -4.736  1.00  0.00    +0.131 C 
ATOM     61  C   UNK A   1      -6.788  -1.986  -3.338  1.00  0.00    -0.033 C 
ATOM     62  C   UNK A   1      -8.477  -0.505  -4.716  1.00  0.00    +0.266 C 
ATOM     63  O   UNK A   1      -8.716   0.197  -5.710  1.00  0.00    -0.270 OA
ATOM     64  N   UNK A   1      -9.324  -0.542  -3.653  1.00  0.00    -0.236 N 
ATOM     65  C   UNK A   1      -8.902   0.277  -2.442  1.00  0.00    +0.131 C 
ATOM     66  C   UNK A   1      -8.322   1.645  -2.835  1.00  0.00    -0.033 C 
ATOM     67  C   UNK A   1     -10.078   0.541  -1.425  1.00  0.00    +0.266 C 
ATOM     68  O   UNK A   1     -11.110   1.143  -1.764  1.00  0.00    -0.270 OA
ATOM     69  N   UNK A   1      -9.859   0.055  -0.175  1.00  0.00    -0.236 N 
ATOM     70  C   UNK A   1      -9.147   0.992   0.783  1.00  0.00    +0.136 C 
ATOM     71  C   UNK A   1     -10.192   1.618   1.778  1.00  0.00    -0.015 C 
ATOM     72  C   UNK A   1      -9.534   2.558   2.793  1.00  0.00    -0.060 C 
ATOM     73  C   UNK A   1     -11.308   2.393   1.066  1.00  0.00    -0.060 C 
ATOM     74  C   UNK A   1      -8.057   0.222   1.665  1.00  0.00    +0.267 C 
ATOM     75  O   UNK A   1      -8.345  -0.821   2.261  1.00  0.00    -0.270 OA
ATOM     76  N   UNK A   1      -6.892   0.921   1.745  1.00  0.00    -0.235 N 
ATOM     77  C   UNK A   1      -5.706   0.232   2.395  1.00  0.00    +0.143 C 
ATOM     78  C   UNK A   1      -4.349   0.538   1.622  1.00  0.00    +0.027 C 
ATOM     79  S   UNK A   1      -3.615  -0.941   0.720  1.00  0.00    -0.140 S 
ATOM     80  C   UNK A   1      -5.576   0.627   3.917  1.00  0.00    +0.267 C 
ATOM     81  O   UNK A   1      -5.402  -0.230   4.793  1.00  0.00    -0.270 OA
ATOM     82  N   UNK A   1      -5.604   1.959   4.154  1.00  0.00    -0.238 N 
ATOM     83  C   UNK A   1      -5.902   2.288   5.559  1.00  0.00    +0.140 C 
ATOM     84  C   UNK A   1      -6.667   3.597   5.564  1.00  0.00    +0.325 C 
ATOM     85  O   UNK A   1      -6.985   4.231   6.571  1.00  0.00    -0.250 OA
ATOM     86  O   UNK A   1      -6.998   4.013   4.316  1.00  0.00    -0.480 OA
ATOM     87  C   UNK A   1       0.199  -0.447   3.572  1.00  0.00    -0.059 C 
ATOM     88  C   UNK A   1       1.283   0.366   3.247  1.00  0.00    -0.058 C 
ATOM     89  C   UNK A   1       1.396   0.940   1.980  1.00  0.00    -0.038 C 
ATOM     90  C   UNK A   1       2.665   1.732   1.558  1.00  0.00    +0.019 C 
ATOM     91  C   UNK A   1       0.332   0.667   1.059  1.00  0.00    -0.053 C 
ATOM     92  C   UNK A   1      -0.812  -0.160   1.363  1.00  0.00    -0.022 C 
ATOM     93  C   UNK A   1      -1.858  -0.416   0.220  1.00  0.00    +0.076 C 
ATOM     94  C   UNK A   1      -0.820  -0.761   2.646  1.00  0.00    -0.046 C 
ATOM     95  C   UNK A   1      -1.829  -1.771   3.122  1.00  0.00    -0.039 C 
ATOM     96  H   UNK A   1       3.650   3.993   5.387  1.00  0.00    +0.060 HD
ATOM     97  H   UNK A   1       4.685   6.763   4.543  1.00  0.00    +0.025 HD
ATOM     98  H   UNK A   1       3.944   5.577   3.454  1.00  0.00    +0.025 HD
ATOM     99  H   UNK A   1       2.989   6.292   4.748  1.00  0.00    +0.025 HD
ATOM    100  H   UNK A   1       6.691   2.381   3.540  1.00  0.00    +0.067 HD
ATOM    101  H   UNK A   1       5.472   2.460   1.309  1.00  0.00    +0.041 HD
ATOM    102  H   UNK A   1       4.870   4.059   1.711  1.00  0.00    +0.041 HD
ATOM    103  H   UNK A   1      10.476   2.179   2.688  1.00  0.00    +0.066 HD
ATOM    104  H   UNK A   1       7.852   0.821   3.321  1.00  0.00    +0.039 HD
ATOM    105  H   UNK A   1       9.374  -0.007   3.170  1.00  0.00    +0.039 HD
ATOM    106  H   UNK A   1       7.986   2.703   5.350  1.00  0.00    +0.159 HD
ATOM    107  H   UNK A   1       9.013   3.219   4.359  1.00  0.00    +0.159 HD
ATOM    108  H   UNK A   1       9.616  -0.707  -0.688  1.00  0.00    +0.066 HD
ATOM    109  H   UNK A   1       8.019  -0.708   1.331  1.00  0.00    +0.032 HD
ATOM    110  H   UNK A   1       6.311   0.843   0.284  1.00  0.00    +0.023 HD
ATOM    111  H   UNK A   1       5.658  -0.589   1.072  1.00  0.00    +0.023 HD
ATOM    112  H   UNK A   1       5.754  -0.504  -0.690  1.00  0.00    +0.023 HD
ATOM    113  H   UNK A   1       8.619  -2.789  -0.009  1.00  0.00    +0.023 HD
ATOM    114  H   UNK A   1       7.000  -2.689  -0.708  1.00  0.00    +0.023 HD
ATOM    115  H   UNK A   1       7.188  -2.825   1.035  1.00  0.00    +0.023 HD
ATOM    116  H   UNK A   1       5.943  -0.122  -3.384  1.00  0.00    +0.065 HD
ATOM    117  H   UNK A   1       7.719   0.104  -5.144  1.00  0.00    +0.026 HD
ATOM    118  H   UNK A   1       6.314  -0.738  -5.813  1.00  0.00    +0.026 HD
ATOM    119  H   UNK A   1       7.752  -1.655  -5.350  1.00  0.00    +0.026 HD
ATOM    120  H   UNK A   1       3.403  -3.744  -3.531  1.00  0.00    +0.066 HD
ATOM    121  H   UNK A   1       4.005  -2.112  -1.563  1.00  0.00    +0.034 HD
ATOM    122  H   UNK A   1       2.441  -1.395  -1.829  1.00  0.00    +0.034 HD
ATOM    123  H   UNK A   1       0.684  -4.233  -2.228  1.00  0.00    +0.082 HD
ATOM    124  H   UNK A   1       0.123  -5.411  -0.127  1.00  0.00    +0.166 HD
ATOM    125  H   UNK A   1       1.191  -5.767   2.502  1.00  0.00    +0.064 HD
ATOM    126  H   UNK A   1       3.040  -4.909   3.962  1.00  0.00    +0.062 HD
ATOM    127  H   UNK A   1       4.683  -3.264   3.064  1.00  0.00    +0.062 HD
ATOM    128  H   UNK A   1       4.503  -2.492   0.719  1.00  0.00    +0.063 HD
ATOM    129  H   UNK A   1      -0.815  -2.980  -3.639  1.00  0.00    +0.067 HD
ATOM    130  H   UNK A   1      -2.334  -0.892  -2.788  1.00  0.00    +0.041 HD
ATOM    131  H   UNK A   1      -0.775  -0.090  -2.558  1.00  0.00    +0.041 HD
ATOM    132  H   UNK A   1      -3.820  -0.506  -5.912  1.00  0.00    +0.069 HD
ATOM    133  H   UNK A   1      -2.557  -1.146  -7.855  1.00  0.00    +0.063 HD
ATOM    134  H   UNK A   1      -5.000  -0.550  -8.360  1.00  0.00    +0.026 HD
ATOM    135  H   UNK A   1      -4.109  -1.461  -9.597  1.00  0.00    +0.026 HD
ATOM    136  H   UNK A   1      -5.277  -2.288  -8.596  1.00  0.00    +0.026 HD
ATOM    137  H   UNK A   1      -2.560  -3.312  -6.911  1.00  0.00    +0.211 HD
ATOM    138  H   UNK A   1      -7.814  -2.507  -5.150  1.00  0.00    +0.065 HD
ATOM    139  H   UNK A   1      -6.057  -2.802  -3.380  1.00  0.00    +0.026 HD
ATOM    140  H   UNK A   1      -7.591  -2.329  -2.680  1.00  0.00    +0.026 HD
ATOM    141  H   UNK A   1      -6.295  -1.131  -2.864  1.00  0.00    +0.026 HD
ATOM    142  H   UNK A   1      -8.128  -0.255  -1.879  1.00  0.00    +0.065 HD
ATOM    143  H   UNK A   1      -7.353   1.521  -3.338  1.00  0.00    +0.026 HD
ATOM    144  H   UNK A   1      -8.157   2.277  -1.958  1.00  0.00    +0.026 HD
ATOM    145  H   UNK A   1      -8.991   2.191  -3.508  1.00  0.00    +0.026 HD
ATOM    146  H   UNK A   1      -8.639   1.803   0.243  1.00  0.00    +0.066 HD
ATOM    147  H   UNK A   1     -10.669   0.809   2.352  1.00  0.00    +0.032 HD
ATOM    148  H   UNK A   1      -8.943   3.330   2.292  1.00  0.00    +0.023 HD
ATOM    149  H   UNK A   1     -10.290   3.051   3.415  1.00  0.00    +0.023 HD
ATOM    150  H   UNK A   1      -8.880   2.007   3.477  1.00  0.00    +0.023 HD
ATOM    151  H   UNK A   1     -10.897   3.113   0.351  1.00  0.00    +0.023 HD
ATOM    152  H   UNK A   1     -11.929   2.943   1.781  1.00  0.00    +0.023 HD
ATOM    153  H   UNK A   1     -11.978   1.712   0.533  1.00  0.00    +0.023 HD
ATOM    154  H   UNK A   1      -5.848  -0.861   2.403  1.00  0.00    +0.067 HD
ATOM    155  H   UNK A   1      -3.582   0.897   2.316  1.00  0.00    +0.041 HD
ATOM    156  H   UNK A   1      -4.511   1.306   0.856  1.00  0.00    +0.041 HD
ATOM    157  H   UNK A   1      -6.549   1.561   6.063  1.00  0.00    +0.064 HD
ATOM    158  H   UNK A   1      -4.987   2.418   6.143  1.00  0.00    +0.064 HD
ATOM    159  H   UNK A   1      -6.639   3.267   3.726  1.00  0.00    +0.296 HD
ATOM    160  H   UNK A   1       0.174  -0.876   4.573  1.00  0.00    +0.063 HD
ATOM    161  H   UNK A   1       2.056   0.504   3.997  1.00  0.00    +0.063 HD
ATOM    162  H   UNK A   1       2.346   2.631   1.021  1.00  0.00    +0.043 HD
ATOM    163  H   UNK A   1       3.251   1.094   0.886  1.00  0.00    +0.043 HD
ATOM    164  H   UNK A   1       0.423   1.077   0.051  1.00  0.00    +0.063 HD
ATOM    165  H   UNK A   1      -1.955   0.483  -0.396  1.00  0.00    +0.058 HD
ATOM    166  H   UNK A   1      -1.489  -2.247   4.051  1.00  0.00    +0.028 HD
ATOM    167  H   UNK A   1      -2.783  -1.294   3.362  1.00  0.00    +0.028 HD
ATOM    168  H   UNK A   1      -1.952  -2.578   2.392  1.00  0.00    +0.028 HD
ENDROOT
TORSDOF 0