REMARK  Generated by RDKit with Gasteiger charges
REMARK  --------------------------------------------------
ROOT
ATOM      1  N   UNK A   1      -4.996  -8.334   6.492  1.00  0.00    -0.131 N 
ATOM      2  C   UNK A   1      -4.165  -7.246   5.922  1.00  0.00    +0.121 C 
ATOM      3  C   UNK A   1      -3.909  -6.250   7.050  1.00  0.00    -0.037 C 
ATOM      4  C   UNK A   1      -2.821  -7.853   5.448  1.00  0.00    +0.262 C 
ATOM      5  O   UNK A   1      -2.396  -8.897   5.973  1.00  0.00    -0.271 OA
ATOM      6  N   UNK A   1      -2.080  -7.119   4.591  1.00  0.00    -0.236 N 
ATOM      7  C   UNK A   1      -2.755  -6.050   3.750  1.00  0.00    +0.143 C 
ATOM      8  C   UNK A   1      -1.742  -5.149   2.950  1.00  0.00    +0.025 C 
ATOM      9  S   UNK A   1      -0.977  -3.735   3.926  1.00  0.00    -0.154 S 
ATOM     10  C   UNK A   1      -3.717  -6.674   2.670  1.00  0.00    +0.267 C 
ATOM     11  O   UNK A   1      -3.439  -7.716   2.062  1.00  0.00    -0.270 OA
ATOM     12  N   UNK A   1      -4.858  -5.960   2.601  1.00  0.00    -0.236 N 
ATOM     13  C   UNK A   1      -5.377  -5.691   1.197  1.00  0.00    +0.140 C 
ATOM     14  C   UNK A   1      -6.779  -6.344   0.963  1.00  0.00    +0.023 C 
ATOM     15  C   UNK A   1      -6.855  -7.843   1.160  1.00  0.00    +0.061 C 
ATOM     16  C   UNK A   1      -6.522  -8.545   2.301  1.00  0.00    +0.024 C 
ATOM     17  N   UNK A   1      -6.408  -9.836   1.903  1.00  0.00    -0.351 N 
ATOM     18  C   UNK A   1      -6.932  -9.925   0.644  1.00  0.00    +0.092 C 
ATOM     19  N   UNK A   1      -7.262  -8.744   0.171  1.00  0.00    -0.242 N 
ATOM     20  C   UNK A   1      -5.567  -4.121   1.006  1.00  0.00    +0.267 C 
ATOM     21  O   UNK A   1      -5.830  -3.401   1.975  1.00  0.00    -0.270 OA
ATOM     22  N   UNK A   1      -5.554  -3.756  -0.304  1.00  0.00    -0.236 N 
ATOM     23  C   UNK A   1      -4.947  -2.358  -0.595  1.00  0.00    +0.135 C 
ATOM     24  C   UNK A   1      -3.484  -2.623  -1.230  1.00  0.00    -0.012 C 
ATOM     25  C   UNK A   1      -2.428  -1.461  -1.341  1.00  0.00    +0.031 C 
ATOM     26  C   UNK A   1      -0.903  -1.920  -1.307  1.00  0.00    +0.242 C 
ATOM     27  O   UNK A   1      -0.566  -2.812  -0.527  1.00  0.00    -0.273 OA
ATOM     28  C   UNK A   1      -5.922  -1.569  -1.617  1.00  0.00    +0.266 C 
ATOM     29  O   UNK A   1      -5.858  -1.808  -2.831  1.00  0.00    -0.270 OA
ATOM     30  N   UNK A   1      -0.090  -1.207  -2.131  1.00  0.00    -0.238 N 
ATOM     31  C   UNK A   1       1.406  -1.577  -2.078  1.00  0.00    +0.138 C 
ATOM     32  C   UNK A   1       1.715  -2.672  -3.141  1.00  0.00    +0.006 C 
ATOM     33  C   UNK A   1       1.374  -4.090  -2.753  1.00  0.00    -0.020 C 
ATOM     34  C   UNK A   1       0.120  -4.668  -2.824  1.00  0.00    +0.005 C 
ATOM     35  N   UNK A   1       0.164  -5.855  -2.150  1.00  0.00    -0.361 N 
ATOM     36  C   UNK A   1       1.466  -6.192  -1.861  1.00  0.00    +0.046 C 
ATOM     37  C   UNK A   1       2.000  -7.329  -1.239  1.00  0.00    -0.038 C 
ATOM     38  C   UNK A   1       3.375  -7.333  -0.968  1.00  0.00    -0.060 C 
ATOM     39  C   UNK A   1       4.173  -6.228  -1.265  1.00  0.00    -0.062 C 
ATOM     40  C   UNK A   1       3.615  -5.089  -1.861  1.00  0.00    -0.053 C 
ATOM     41  C   UNK A   1       2.244  -5.075  -2.187  1.00  0.00    +0.003 C 
ATOM     42  C   UNK A   1       2.395  -0.374  -2.461  1.00  0.00    +0.267 C 
ATOM     43  O   UNK A   1       2.180   0.350  -3.445  1.00  0.00    -0.270 OA
ATOM     44  N   UNK A   1      -6.815  -0.714  -1.027  1.00  0.00    -0.236 N 
ATOM     45  C   UNK A   1      -6.991   0.653  -1.692  1.00  0.00    +0.138 C 
ATOM     46  C   UNK A   1      -7.606   0.597  -3.115  1.00  0.00    +0.004 C 
ATOM     47  C   UNK A   1      -9.038   0.101  -3.274  1.00  0.00    -0.045 C 
ATOM     48  C   UNK A   1     -10.107   1.004  -3.292  1.00  0.00    -0.059 C 
ATOM     49  C   UNK A   1     -11.419   0.552  -3.449  1.00  0.00    -0.062 C 
ATOM     50  C   UNK A   1     -11.673  -0.813  -3.581  1.00  0.00    -0.062 C 
ATOM     51  C   UNK A   1     -10.616  -1.723  -3.529  1.00  0.00    -0.062 C 
ATOM     52  C   UNK A   1      -9.305  -1.266  -3.374  1.00  0.00    -0.059 C 
ATOM     53  C   UNK A   1      -7.813   1.741  -0.855  1.00  0.00    +0.267 C 
ATOM     54  O   UNK A   1      -8.805   1.462  -0.172  1.00  0.00    -0.270 OA
ATOM     55  N   UNK A   1       3.570  -0.389  -1.764  1.00  0.00    -0.235 N 
ATOM     56  C   UNK A   1       3.980   0.984  -1.238  1.00  0.00    +0.143 C 
ATOM     57  C   UNK A   1       3.006   1.345  -0.021  1.00  0.00    +0.027 C 
ATOM     58  S   UNK A   1       1.321   2.088  -0.423  1.00  0.00    -0.140 S 
ATOM     59  C   UNK A   1       5.541   1.177  -0.741  1.00  0.00    +0.267 C 
ATOM     60  O   UNK A   1       5.759   1.775   0.323  1.00  0.00    -0.270 OA
ATOM     61  N   UNK A   1      -7.410   3.020  -1.127  1.00  0.00    -0.236 N 
ATOM     62  C   UNK A   1      -6.915   3.752   0.095  1.00  0.00    +0.131 C 
ATOM     63  C   UNK A   1      -5.702   3.021   0.710  1.00  0.00    -0.033 C 
ATOM     64  C   UNK A   1      -6.651   5.315  -0.127  1.00  0.00    +0.266 C 
ATOM     65  O   UNK A   1      -7.594   6.118  -0.185  1.00  0.00    -0.270 OA
ATOM     66  N   UNK A   1       6.523   0.730  -1.576  1.00  0.00    -0.236 N 
ATOM     67  C   UNK A   1       7.729   1.632  -1.890  1.00  0.00    +0.134 C 
ATOM     68  C   UNK A   1       7.398   3.149  -1.753  1.00  0.00    -0.021 C 
ATOM     69  C   UNK A   1       8.457   4.142  -2.258  1.00  0.00    -0.050 C 
ATOM     70  C   UNK A   1       8.854   3.955  -3.724  1.00  0.00    -0.041 C 
ATOM     71  C   UNK A   1       9.936   4.954  -4.144  1.00  0.00    -0.008 C 
ATOM     72  N   UNK A   1      10.738   4.443  -5.277  1.00  0.00    -0.330 N 
ATOM     73  C   UNK A   1       9.148   1.303  -1.239  1.00  0.00    +0.266 C 
ATOM     74  O   UNK A   1       9.308   1.116  -0.029  1.00  0.00    -0.270 OA
ATOM     75  N   UNK A   1      -5.335   5.636  -0.172  1.00  0.00    -0.236 N 
ATOM     76  C   UNK A   1      -4.917   6.938   0.417  1.00  0.00    +0.134 C 
ATOM     77  C   UNK A   1      -5.217   7.035   1.929  1.00  0.00    -0.019 C 
ATOM     78  C   UNK A   1      -5.023   8.448   2.520  1.00  0.00    -0.045 C 
ATOM     79  C   UNK A   1      -6.171   9.388   2.129  1.00  0.00    -0.063 C 
ATOM     80  C   UNK A   1      -4.935   8.369   4.046  1.00  0.00    -0.063 C 
ATOM     81  C   UNK A   1      -3.422   7.314   0.041  1.00  0.00    +0.266 C 
ATOM     82  O   UNK A   1      -3.261   8.130  -0.885  1.00  0.00    -0.270 OA
ATOM     83  N   UNK A   1      10.166   1.356  -2.155  1.00  0.00    -0.235 N 
ATOM     84  C   UNK A   1      11.555   1.360  -1.611  1.00  0.00    +0.143 C 
ATOM     85  C   UNK A   1      12.019  -0.094  -1.331  1.00  0.00    +0.058 C 
ATOM     86  C   UNK A   1      13.486  -0.280  -0.925  1.00  0.00    +0.220 C 
ATOM     87  O   UNK A   1      13.871  -0.882   0.081  1.00  0.00    -0.275 OA
ATOM     88  N   UNK A   1      14.415   0.172  -1.840  1.00  0.00    -0.370 N 
ATOM     89  C   UNK A   1      12.516   2.029  -2.651  1.00  0.00    +0.267 C 
ATOM     90  O   UNK A   1      12.751   1.542  -3.761  1.00  0.00    -0.270 OA
ATOM     91  N   UNK A   1      -2.376   6.898   0.794  1.00  0.00    -0.233 N 
ATOM     92  C   UNK A   1      -2.298   5.490   1.309  1.00  0.00    +0.160 C 
ATOM     93  C   UNK A   1      -1.218   4.602   0.593  1.00  0.00    +0.028 C 
ATOM     94  S   UNK A   1      -1.210   2.850   1.250  1.00  0.00    -0.140 S 
ATOM     95  C   UNK A   1      -1.828   5.636   2.754  1.00  0.00    +0.329 C 
ATOM     96  O   UNK A   1      -0.850   6.254   3.185  1.00  0.00    -0.250 OA
ATOM     97  O   UNK A   1      -2.544   4.906   3.648  1.00  0.00    -0.480 OA
ATOM     98  N   UNK A   1      13.195   3.059  -2.109  1.00  0.00    -0.238 N 
ATOM     99  C   UNK A   1      14.178   3.682  -3.027  1.00  0.00    +0.140 C 
ATOM    100  C   UNK A   1      14.629   4.986  -2.385  1.00  0.00    +0.325 C 
ATOM    101  O   UNK A   1      15.520   5.719  -2.807  1.00  0.00    -0.250 OA
ATOM    102  O   UNK A   1      13.955   5.240  -1.231  1.00  0.00    -0.480 OA
ATOM    103  C   UNK A   1       1.511   0.121   4.312  1.00  0.00    -0.059 C 
ATOM    104  C   UNK A   1       0.874  -1.093   4.032  1.00  0.00    -0.058 C 
ATOM    105  C   UNK A   1       0.108  -1.251   2.874  1.00  0.00    -0.038 C 
ATOM    106  C   UNK A   1      -0.600  -2.570   2.504  1.00  0.00    +0.019 C 
ATOM    107  C   UNK A   1       0.077  -0.152   1.965  1.00  0.00    -0.053 C 
ATOM    108  C   UNK A   1       0.715   1.097   2.219  1.00  0.00    -0.022 C 
ATOM    109  C   UNK A   1       0.580   2.292   1.234  1.00  0.00    +0.076 C 
ATOM    110  C   UNK A   1       1.429   1.222   3.436  1.00  0.00    -0.046 C 
ATOM    111  C   UNK A   1       2.099   2.508   3.830  1.00  0.00    -0.039 C 
ATOM    112  H   UNK A   1      -4.747  -6.799   5.122  1.00  0.00    +0.060 HD
ATOM    113  H   UNK A   1      -4.834  -5.768   7.390  1.00  0.00    +0.025 HD
ATOM    114  H   UNK A   1      -3.201  -5.467   6.758  1.00  0.00    +0.025 HD
ATOM    115  H   UNK A   1      -3.474  -6.760   7.919  1.00  0.00    +0.025 HD
ATOM    116  H   UNK A   1      -3.330  -5.351   4.372  1.00  0.00    +0.067 HD
ATOM    117  H   UNK A   1      -0.921  -5.752   2.549  1.00  0.00    +0.041 HD
ATOM    118  H   UNK A   1      -2.257  -4.684   2.105  1.00  0.00    +0.041 HD
ATOM    119  H   UNK A   1      -4.673  -6.048   0.427  1.00  0.00    +0.066 HD
ATOM    120  H   UNK A   1      -7.515  -5.881   1.637  1.00  0.00    +0.036 HD
ATOM    121  H   UNK A   1      -7.112  -6.117  -0.060  1.00  0.00    +0.036 HD
ATOM    122  H   UNK A   1      -6.126  -8.188   3.242  1.00  0.00    +0.084 HD
ATOM    123  H   UNK A   1      -5.939 -10.553   2.431  1.00  0.00    +0.167 HD
ATOM    124  H   UNK A   1      -6.988 -10.858   0.107  1.00  0.00    +0.104 HD
ATOM    125  H   UNK A   1      -4.813  -1.744   0.307  1.00  0.00    +0.066 HD
ATOM    126  H   UNK A   1      -3.029  -3.458  -0.683  1.00  0.00    +0.030 HD
ATOM    127  H   UNK A   1      -3.634  -2.992  -2.255  1.00  0.00    +0.030 HD
ATOM    128  H   UNK A   1      -2.615  -0.920  -2.279  1.00  0.00    +0.037 HD
ATOM    129  H   UNK A   1      -2.559  -0.762  -0.508  1.00  0.00    +0.037 HD
ATOM    130  H   UNK A   1       1.688  -1.904  -1.068  1.00  0.00    +0.066 HD
ATOM    131  H   UNK A   1       2.777  -2.650  -3.410  1.00  0.00    +0.034 HD
ATOM    132  H   UNK A   1       1.183  -2.429  -4.070  1.00  0.00    +0.034 HD
ATOM    133  H   UNK A   1      -0.828  -4.220  -3.106  1.00  0.00    +0.082 HD
ATOM    134  H   UNK A   1      -0.664  -6.350  -1.840  1.00  0.00    +0.166 HD
ATOM    135  H   UNK A   1       1.352  -8.150  -0.951  1.00  0.00    +0.064 HD
ATOM    136  H   UNK A   1       3.813  -8.190  -0.464  1.00  0.00    +0.062 HD
ATOM    137  H   UNK A   1       5.222  -6.203  -0.988  1.00  0.00    +0.062 HD
ATOM    138  H   UNK A   1       4.204  -4.189  -2.043  1.00  0.00    +0.063 HD
ATOM    139  H   UNK A   1      -5.976   1.075  -1.799  1.00  0.00    +0.066 HD
ATOM    140  H   UNK A   1      -7.559   1.607  -3.554  1.00  0.00    +0.034 HD
ATOM    141  H   UNK A   1      -6.973   0.008  -3.794  1.00  0.00    +0.034 HD
ATOM    142  H   UNK A   1      -9.885   2.059  -3.112  1.00  0.00    +0.063 HD
ATOM    143  H   UNK A   1     -12.226   1.274  -3.409  1.00  0.00    +0.062 HD
ATOM    144  H   UNK A   1     -12.689  -1.172  -3.658  1.00  0.00    +0.062 HD
ATOM    145  H   UNK A   1     -10.785  -2.793  -3.550  1.00  0.00    +0.062 HD
ATOM    146  H   UNK A   1      -8.468  -1.962  -3.266  1.00  0.00    +0.063 HD
ATOM    147  H   UNK A   1       3.864   1.764  -2.009  1.00  0.00    +0.067 HD
ATOM    148  H   UNK A   1       2.815   0.422   0.532  1.00  0.00    +0.041 HD
ATOM    149  H   UNK A   1       3.469   2.063   0.660  1.00  0.00    +0.041 HD
ATOM    150  H   UNK A   1      -7.685   3.741   0.881  1.00  0.00    +0.065 HD
ATOM    151  H   UNK A   1      -5.327   3.557   1.589  1.00  0.00    +0.026 HD
ATOM    152  H   UNK A   1      -4.881   2.919  -0.012  1.00  0.00    +0.026 HD
ATOM    153  H   UNK A   1      -5.962   2.011   1.049  1.00  0.00    +0.026 HD
ATOM    154  H   UNK A   1       7.875   1.458  -2.969  1.00  0.00    +0.066 HD
ATOM    155  H   UNK A   1       6.459   3.364  -2.279  1.00  0.00    +0.029 HD
ATOM    156  H   UNK A   1       7.227   3.395  -0.700  1.00  0.00    +0.029 HD
ATOM    157  H   UNK A   1       8.065   5.161  -2.126  1.00  0.00    +0.027 HD
ATOM    158  H   UNK A   1       9.341   4.081  -1.612  1.00  0.00    +0.027 HD
ATOM    159  H   UNK A   1       7.970   4.083  -4.370  1.00  0.00    +0.028 HD
ATOM    160  H   UNK A   1       9.213   2.940  -3.897  1.00  0.00    +0.028 HD
ATOM    161  H   UNK A   1       9.462   5.892  -4.446  1.00  0.00    +0.043 HD
ATOM    162  H   UNK A   1      10.614   5.184  -3.315  1.00  0.00    +0.043 HD
ATOM    163  H   UNK A   1      11.417   3.812  -4.807  1.00  0.00    +0.118 HD
ATOM    164  H   UNK A   1      10.147   3.733  -5.728  1.00  0.00    +0.118 HD
ATOM    165  H   UNK A   1      -5.507   7.722  -0.075  1.00  0.00    +0.066 HD
ATOM    166  H   UNK A   1      -6.257   6.729   2.124  1.00  0.00    +0.030 HD
ATOM    167  H   UNK A   1      -4.608   6.316   2.489  1.00  0.00    +0.030 HD
ATOM    168  H   UNK A   1      -4.084   8.881   2.163  1.00  0.00    +0.030 HD
ATOM    169  H   UNK A   1      -6.291   9.453   1.045  1.00  0.00    +0.023 HD
ATOM    170  H   UNK A   1      -7.120   9.047   2.560  1.00  0.00    +0.023 HD
ATOM    171  H   UNK A   1      -5.976  10.403   2.495  1.00  0.00    +0.023 HD
ATOM    172  H   UNK A   1      -4.018   7.850   4.349  1.00  0.00    +0.023 HD
ATOM    173  H   UNK A   1      -4.898   9.370   4.484  1.00  0.00    +0.023 HD
ATOM    174  H   UNK A   1      -5.792   7.837   4.470  1.00  0.00    +0.023 HD
ATOM    175  H   UNK A   1      11.615   1.924  -0.665  1.00  0.00    +0.066 HD
ATOM    176  H   UNK A   1      11.865  -0.711  -2.227  1.00  0.00    +0.039 HD
ATOM    177  H   UNK A   1      11.398  -0.544  -0.545  1.00  0.00    +0.039 HD
ATOM    178  H   UNK A   1      14.477   1.191  -1.727  1.00  0.00    +0.159 HD
ATOM    179  H   UNK A   1      13.968   0.188  -2.768  1.00  0.00    +0.159 HD
ATOM    180  H   UNK A   1      -3.260   4.969   1.308  1.00  0.00    +0.068 HD
ATOM    181  H   UNK A   1      -0.216   5.030   0.718  1.00  0.00    +0.041 HD
ATOM    182  H   UNK A   1      -1.442   4.543  -0.477  1.00  0.00    +0.041 HD
ATOM    183  H   UNK A   1      -1.875   4.755   4.334  1.00  0.00    +0.296 HD
ATOM    184  H   UNK A   1      13.755   3.923  -4.007  1.00  0.00    +0.064 HD
ATOM    185  H   UNK A   1      15.071   3.053  -3.153  1.00  0.00    +0.064 HD
ATOM    186  H   UNK A   1      13.319   4.458  -1.214  1.00  0.00    +0.296 HD
ATOM    187  H   UNK A   1       2.089   0.192   5.228  1.00  0.00    +0.063 HD
ATOM    188  H   UNK A   1       0.976  -1.918   4.729  1.00  0.00    +0.063 HD
ATOM    189  H   UNK A   1       0.055  -3.121   1.818  1.00  0.00    +0.043 HD
ATOM    190  H   UNK A   1      -1.553  -2.322   2.015  1.00  0.00    +0.043 HD
ATOM    191  H   UNK A   1      -0.466  -0.274   1.021  1.00  0.00    +0.063 HD
ATOM    192  H   UNK A   1       1.108   3.156   1.649  1.00  0.00    +0.058 HD
ATOM    193  H   UNK A   1       2.628   2.410   4.784  1.00  0.00    +0.028 HD
ATOM    194  H   UNK A   1       2.841   2.793   3.078  1.00  0.00    +0.028 HD
ATOM    195  H   UNK A   1       1.356   3.304   3.948  1.00  0.00    +0.028 HD
ENDROOT
TORSDOF 0