REMARK  Generated by RDKit with Gasteiger charges
REMARK  --------------------------------------------------
ROOT
ATOM      1  N   UNK A   1     -13.136   3.305  -5.727  1.00  0.00    -0.131 N 
ATOM      2  C   UNK A   1     -11.838   3.016  -5.063  1.00  0.00    +0.121 C 
ATOM      3  C   UNK A   1     -10.772   3.074  -6.155  1.00  0.00    -0.037 C 
ATOM      4  C   UNK A   1     -11.572   4.107  -4.001  1.00  0.00    +0.262 C 
ATOM      5  O   UNK A   1     -12.079   5.230  -4.159  1.00  0.00    -0.271 OA
ATOM      6  N   UNK A   1     -10.728   3.826  -2.992  1.00  0.00    -0.236 N 
ATOM      7  C   UNK A   1     -10.168   2.432  -2.792  1.00  0.00    +0.143 C 
ATOM      8  C   UNK A   1      -8.704   2.491  -2.226  1.00  0.00    +0.025 C 
ATOM      9  S   UNK A   1      -7.391   2.977  -3.470  1.00  0.00    -0.154 S 
ATOM     10  C   UNK A   1     -11.165   1.558  -1.905  1.00  0.00    +0.267 C 
ATOM     11  O   UNK A   1     -12.315   1.348  -2.313  1.00  0.00    -0.270 OA
ATOM     12  N   UNK A   1     -10.626   1.179  -0.731  1.00  0.00    -0.236 N 
ATOM     13  C   UNK A   1     -11.080  -0.049   0.020  1.00  0.00    +0.137 C 
ATOM     14  C   UNK A   1     -12.634  -0.146   0.192  1.00  0.00    -0.013 C 
ATOM     15  C   UNK A   1     -13.249   1.163   0.721  1.00  0.00    -0.060 C 
ATOM     16  C   UNK A   1     -13.098  -1.318   1.093  1.00  0.00    -0.051 C 
ATOM     17  C   UNK A   1     -12.808  -1.156   2.581  1.00  0.00    -0.065 C 
ATOM     18  C   UNK A   1     -10.447  -1.409  -0.515  1.00  0.00    +0.267 C 
ATOM     19  O   UNK A   1     -10.638  -1.769  -1.683  1.00  0.00    -0.270 OA
ATOM     20  N   UNK A   1      -9.951  -2.231   0.455  1.00  0.00    -0.236 N 
ATOM     21  C   UNK A   1      -8.464  -2.101   0.787  1.00  0.00    +0.134 C 
ATOM     22  C   UNK A   1      -8.354  -1.473   2.211  1.00  0.00    -0.019 C 
ATOM     23  C   UNK A   1      -8.552  -2.388   3.453  1.00  0.00    -0.045 C 
ATOM     24  C   UNK A   1      -8.732  -1.518   4.704  1.00  0.00    -0.063 C 
ATOM     25  C   UNK A   1      -9.697  -3.395   3.361  1.00  0.00    -0.063 C 
ATOM     26  C   UNK A   1      -7.585  -3.441   0.632  1.00  0.00    +0.266 C 
ATOM     27  O   UNK A   1      -7.965  -4.389  -0.066  1.00  0.00    -0.270 OA
ATOM     28  N   UNK A   1      -6.437  -3.460   1.370  1.00  0.00    -0.239 N 
ATOM     29  C   UNK A   1      -5.152  -3.247   0.607  1.00  0.00    +0.124 C 
ATOM     30  C   UNK A   1      -3.829  -3.889   1.220  1.00  0.00    +0.263 C 
ATOM     31  O   UNK A   1      -3.817  -5.066   1.603  1.00  0.00    -0.271 OA
ATOM     32  N   UNK A   1      -2.750  -3.045   1.236  1.00  0.00    -0.236 N 
ATOM     33  C   UNK A   1      -1.552  -3.496   0.406  1.00  0.00    +0.138 C 
ATOM     34  C   UNK A   1      -1.844  -3.243  -1.104  1.00  0.00    +0.004 C 
ATOM     35  C   UNK A   1      -1.707  -4.488  -1.972  1.00  0.00    -0.045 C 
ATOM     36  C   UNK A   1      -2.801  -5.334  -2.179  1.00  0.00    -0.059 C 
ATOM     37  C   UNK A   1      -2.674  -6.469  -2.981  1.00  0.00    -0.062 C 
ATOM     38  C   UNK A   1      -1.447  -6.776  -3.571  1.00  0.00    -0.062 C 
ATOM     39  C   UNK A   1      -0.344  -5.951  -3.351  1.00  0.00    -0.062 C 
ATOM     40  C   UNK A   1      -0.476  -4.811  -2.555  1.00  0.00    -0.059 C 
ATOM     41  C   UNK A   1      -0.028  -3.026   0.651  1.00  0.00    +0.267 C 
ATOM     42  O   UNK A   1       0.851  -3.896   0.517  1.00  0.00    -0.270 OA
ATOM     43  N   UNK A   1       0.210  -1.718   0.920  1.00  0.00    -0.235 N 
ATOM     44  C   UNK A   1       1.338  -1.007   0.115  1.00  0.00    +0.143 C 
ATOM     45  C   UNK A   1       0.796   0.415  -0.287  1.00  0.00    +0.027 C 
ATOM     46  S   UNK A   1      -0.556   0.527  -1.562  1.00  0.00    -0.140 S 
ATOM     47  C   UNK A   1       2.761  -0.687   0.856  1.00  0.00    +0.267 C 
ATOM     48  O   UNK A   1       2.953  -0.923   2.054  1.00  0.00    -0.270 OA
ATOM     49  N   UNK A   1       3.687  -0.171  -0.019  1.00  0.00    -0.235 N 
ATOM     50  C   UNK A   1       4.850   0.692   0.518  1.00  0.00    +0.143 C 
ATOM     51  C   UNK A   1       6.222   0.339  -0.272  1.00  0.00    +0.060 C 
ATOM     52  C   UNK A   1       7.678   0.950   0.084  1.00  0.00    +0.244 C 
ATOM     53  O   UNK A   1       7.846   2.166   0.240  1.00  0.00    -0.273 OA
ATOM     54  C   UNK A   1       4.559   2.253   0.556  1.00  0.00    +0.267 C 
ATOM     55  O   UNK A   1       5.043   2.928   1.478  1.00  0.00    -0.270 OA
ATOM     56  N   UNK A   1       8.688   0.020   0.043  1.00  0.00    -0.238 N 
ATOM     57  C   UNK A   1      10.015   0.435   0.681  1.00  0.00    +0.138 C 
ATOM     58  C   UNK A   1       9.889   0.714   2.211  1.00  0.00    +0.006 C 
ATOM     59  C   UNK A   1       9.035  -0.234   3.019  1.00  0.00    -0.020 C 
ATOM     60  C   UNK A   1       7.677  -0.082   3.219  1.00  0.00    +0.005 C 
ATOM     61  N   UNK A   1       7.192  -1.204   3.821  1.00  0.00    -0.361 N 
ATOM     62  C   UNK A   1       8.239  -2.002   4.234  1.00  0.00    +0.046 C 
ATOM     63  C   UNK A   1       8.244  -3.201   4.961  1.00  0.00    -0.038 C 
ATOM     64  C   UNK A   1       9.473  -3.846   5.145  1.00  0.00    -0.060 C 
ATOM     65  C   UNK A   1      10.649  -3.318   4.609  1.00  0.00    -0.062 C 
ATOM     66  C   UNK A   1      10.624  -2.122   3.881  1.00  0.00    -0.053 C 
ATOM     67  C   UNK A   1       9.405  -1.437   3.701  1.00  0.00    +0.003 C 
ATOM     68  C   UNK A   1      11.245  -0.549   0.424  1.00  0.00    +0.267 C 
ATOM     69  O   UNK A   1      11.121  -1.756   0.215  1.00  0.00    -0.270 OA
ATOM     70  N   UNK A   1       3.822   2.777  -0.460  1.00  0.00    -0.235 N 
ATOM     71  C   UNK A   1       3.965   4.254  -0.660  1.00  0.00    +0.143 C 
ATOM     72  C   UNK A   1       5.284   4.576  -1.406  1.00  0.00    +0.058 C 
ATOM     73  C   UNK A   1       6.285   5.361  -0.562  1.00  0.00    +0.220 C 
ATOM     74  O   UNK A   1       6.680   6.495  -0.866  1.00  0.00    -0.275 OA
ATOM     75  N   UNK A   1       6.783   4.708   0.540  1.00  0.00    -0.370 N 
ATOM     76  C   UNK A   1       2.756   4.807  -1.504  1.00  0.00    +0.267 C 
ATOM     77  O   UNK A   1       2.624   4.616  -2.714  1.00  0.00    -0.270 OA
ATOM     78  N   UNK A   1      12.463   0.067   0.544  1.00  0.00    -0.236 N 
ATOM     79  C   UNK A   1      13.425  -0.311  -0.539  1.00  0.00    +0.135 C 
ATOM     80  C   UNK A   1      13.233   0.618  -1.769  1.00  0.00    -0.013 C 
ATOM     81  C   UNK A   1      13.625  -0.020  -3.107  1.00  0.00    +0.029 C 
ATOM     82  C   UNK A   1      15.112  -0.073  -3.387  1.00  0.00    +0.217 C 
ATOM     83  O   UNK A   1      15.705   0.702  -4.142  1.00  0.00    -0.275 OA
ATOM     84  N   UNK A   1      15.790  -1.113  -2.815  1.00  0.00    -0.370 N 
ATOM     85  C   UNK A   1      14.897  -0.177  -0.013  1.00  0.00    +0.266 C 
ATOM     86  O   UNK A   1      15.470   0.900   0.153  1.00  0.00    -0.270 OA
ATOM     87  N   UNK A   1       2.030   5.701  -0.818  1.00  0.00    -0.233 N 
ATOM     88  C   UNK A   1       0.695   5.295  -0.339  1.00  0.00    +0.160 C 
ATOM     89  C   UNK A   1      -0.433   4.942  -1.334  1.00  0.00    +0.028 C 
ATOM     90  S   UNK A   1      -0.575   3.395  -2.300  1.00  0.00    -0.140 S 
ATOM     91  C   UNK A   1       0.587   4.556   0.968  1.00  0.00    +0.329 C 
ATOM     92  O   UNK A   1      -0.261   4.889   1.807  1.00  0.00    -0.250 OA
ATOM     93  O   UNK A   1       1.430   3.547   1.195  1.00  0.00    -0.480 OA
ATOM     94  N   UNK A   1      15.540  -1.354   0.101  1.00  0.00    -0.238 N 
ATOM     95  C   UNK A   1      14.941  -2.253   1.091  1.00  0.00    +0.140 C 
ATOM     96  C   UNK A   1      15.006  -1.732   2.510  1.00  0.00    +0.325 C 
ATOM     97  O   UNK A   1      15.825  -2.134   3.341  1.00  0.00    -0.250 OA
ATOM     98  O   UNK A   1      14.063  -0.815   2.810  1.00  0.00    -0.480 OA
ATOM     99  C   UNK A   1      -4.795   1.151   0.156  1.00  0.00    -0.059 C 
ATOM    100  C   UNK A   1      -5.655   1.870  -0.665  1.00  0.00    -0.058 C 
ATOM    101  C   UNK A   1      -5.148   2.740  -1.631  1.00  0.00    -0.038 C 
ATOM    102  C   UNK A   1      -6.092   3.665  -2.378  1.00  0.00    +0.019 C 
ATOM    103  C   UNK A   1      -3.729   2.832  -1.768  1.00  0.00    -0.053 C 
ATOM    104  C   UNK A   1      -2.817   2.114  -0.936  1.00  0.00    -0.022 C 
ATOM    105  C   UNK A   1      -1.260   2.182  -1.059  1.00  0.00    +0.076 C 
ATOM    106  C   UNK A   1      -3.398   1.300   0.074  1.00  0.00    -0.046 C 
ATOM    107  C   UNK A   1      -2.589   0.480   1.050  1.00  0.00    -0.039 C 
ATOM    108  H   UNK A   1     -11.933   2.013  -4.651  1.00  0.00    +0.060 HD
ATOM    109  H   UNK A   1     -10.718   4.070  -6.612  1.00  0.00    +0.025 HD
ATOM    110  H   UNK A   1     -10.978   2.349  -6.951  1.00  0.00    +0.025 HD
ATOM    111  H   UNK A   1      -9.776   2.854  -5.760  1.00  0.00    +0.025 HD
ATOM    112  H   UNK A   1     -10.071   1.864  -3.724  1.00  0.00    +0.067 HD
ATOM    113  H   UNK A   1      -8.654   3.187  -1.379  1.00  0.00    +0.041 HD
ATOM    114  H   UNK A   1      -8.405   1.496  -1.884  1.00  0.00    +0.041 HD
ATOM    115  H   UNK A   1     -10.677   0.087   1.033  1.00  0.00    +0.066 HD
ATOM    116  H   UNK A   1     -13.076  -0.356  -0.789  1.00  0.00    +0.033 HD
ATOM    117  H   UNK A   1     -12.750   1.503   1.634  1.00  0.00    +0.023 HD
ATOM    118  H   UNK A   1     -13.180   1.974  -0.009  1.00  0.00    +0.023 HD
ATOM    119  H   UNK A   1     -14.315   1.032   0.941  1.00  0.00    +0.023 HD
ATOM    120  H   UNK A   1     -14.184  -1.431   0.978  1.00  0.00    +0.027 HD
ATOM    121  H   UNK A   1     -12.670  -2.263   0.738  1.00  0.00    +0.027 HD
ATOM    122  H   UNK A   1     -13.071  -2.078   3.110  1.00  0.00    +0.023 HD
ATOM    123  H   UNK A   1     -11.753  -0.942   2.772  1.00  0.00    +0.023 HD
ATOM    124  H   UNK A   1     -13.403  -0.347   3.018  1.00  0.00    +0.023 HD
ATOM    125  H   UNK A   1      -8.000  -1.395   0.082  1.00  0.00    +0.066 HD
ATOM    126  H   UNK A   1      -9.053  -0.630   2.288  1.00  0.00    +0.030 HD
ATOM    127  H   UNK A   1      -7.359  -1.015   2.304  1.00  0.00    +0.030 HD
ATOM    128  H   UNK A   1      -7.634  -2.965   3.615  1.00  0.00    +0.030 HD
ATOM    129  H   UNK A   1      -7.878  -0.841   4.837  1.00  0.00    +0.023 HD
ATOM    130  H   UNK A   1      -9.644  -0.914   4.639  1.00  0.00    +0.023 HD
ATOM    131  H   UNK A   1      -8.804  -2.143   5.603  1.00  0.00    +0.023 HD
ATOM    132  H   UNK A   1      -9.775  -3.969   4.291  1.00  0.00    +0.023 HD
ATOM    133  H   UNK A   1      -9.535  -4.119   2.559  1.00  0.00    +0.023 HD
ATOM    134  H   UNK A   1     -10.658  -2.905   3.198  1.00  0.00    +0.023 HD
ATOM    135  H   UNK A   1      -5.227  -3.669  -0.406  1.00  0.00    +0.062 HD
ATOM    136  H   UNK A   1      -4.982  -2.168   0.472  1.00  0.00    +0.062 HD
ATOM    137  H   UNK A   1      -1.468  -4.584   0.564  1.00  0.00    +0.066 HD
ATOM    138  H   UNK A   1      -1.162  -2.484  -1.511  1.00  0.00    +0.034 HD
ATOM    139  H   UNK A   1      -2.848  -2.831  -1.257  1.00  0.00    +0.034 HD
ATOM    140  H   UNK A   1      -3.745  -5.095  -1.687  1.00  0.00    +0.063 HD
ATOM    141  H   UNK A   1      -3.539  -7.107  -3.116  1.00  0.00    +0.062 HD
ATOM    142  H   UNK A   1      -1.344  -7.669  -4.175  1.00  0.00    +0.062 HD
ATOM    143  H   UNK A   1       0.628  -6.182  -3.768  1.00  0.00    +0.062 HD
ATOM    144  H   UNK A   1       0.379  -4.168  -2.344  1.00  0.00    +0.063 HD
ATOM    145  H   UNK A   1       1.583  -1.575  -0.792  1.00  0.00    +0.067 HD
ATOM    146  H   UNK A   1       0.442   0.896   0.630  1.00  0.00    +0.041 HD
ATOM    147  H   UNK A   1       1.590   1.052  -0.681  1.00  0.00    +0.041 HD
ATOM    148  H   UNK A   1       5.042   0.422   1.565  1.00  0.00    +0.066 HD
ATOM    149  H   UNK A   1       6.325  -0.756  -0.216  1.00  0.00    +0.040 HD
ATOM    150  H   UNK A   1       6.068   0.580  -1.333  1.00  0.00    +0.040 HD
ATOM    151  H   UNK A   1      10.330   1.380   0.207  1.00  0.00    +0.066 HD
ATOM    152  H   UNK A   1       9.469   1.723   2.337  1.00  0.00    +0.034 HD
ATOM    153  H   UNK A   1      10.883   0.762   2.674  1.00  0.00    +0.034 HD
ATOM    154  H   UNK A   1       7.002   0.675   2.831  1.00  0.00    +0.082 HD
ATOM    155  H   UNK A   1       6.204  -1.420   3.862  1.00  0.00    +0.166 HD
ATOM    156  H   UNK A   1       7.315  -3.628   5.320  1.00  0.00    +0.064 HD
ATOM    157  H   UNK A   1       9.500  -4.791   5.673  1.00  0.00    +0.062 HD
ATOM    158  H   UNK A   1      11.594  -3.841   4.704  1.00  0.00    +0.062 HD
ATOM    159  H   UNK A   1      11.517  -1.727   3.404  1.00  0.00    +0.063 HD
ATOM    160  H   UNK A   1       3.951   4.791   0.300  1.00  0.00    +0.066 HD
ATOM    161  H   UNK A   1       5.099   5.183  -2.300  1.00  0.00    +0.039 HD
ATOM    162  H   UNK A   1       5.794   3.668  -1.753  1.00  0.00    +0.039 HD
ATOM    163  H   UNK A   1       6.006   4.211   1.018  1.00  0.00    +0.159 HD
ATOM    164  H   UNK A   1       7.218   3.802   0.276  1.00  0.00    +0.159 HD
ATOM    165  H   UNK A   1      13.265  -1.341  -0.884  1.00  0.00    +0.066 HD
ATOM    166  H   UNK A   1      13.771   1.564  -1.636  1.00  0.00    +0.030 HD
ATOM    167  H   UNK A   1      12.170   0.880  -1.854  1.00  0.00    +0.030 HD
ATOM    168  H   UNK A   1      13.204  -1.027  -3.199  1.00  0.00    +0.037 HD
ATOM    169  H   UNK A   1      13.184   0.572  -3.921  1.00  0.00    +0.037 HD
ATOM    170  H   UNK A   1      16.774  -0.925  -2.724  1.00  0.00    +0.159 HD
ATOM    171  H   UNK A   1      15.406  -1.414  -1.906  1.00  0.00    +0.159 HD
ATOM    172  H   UNK A   1       0.336   6.287   0.006  1.00  0.00    +0.068 HD
ATOM    173  H   UNK A   1      -1.397   5.052  -0.823  1.00  0.00    +0.041 HD
ATOM    174  H   UNK A   1      -0.428   5.724  -2.102  1.00  0.00    +0.041 HD
ATOM    175  H   UNK A   1       2.094   3.332   0.476  1.00  0.00    +0.296 HD
ATOM    176  H   UNK A   1      15.485  -3.209   1.087  1.00  0.00    +0.064 HD
ATOM    177  H   UNK A   1      13.908  -2.548   0.878  1.00  0.00    +0.064 HD
ATOM    178  H   UNK A   1      13.512  -0.577   1.997  1.00  0.00    +0.296 HD
ATOM    179  H   UNK A   1      -5.221   0.437   0.863  1.00  0.00    +0.063 HD
ATOM    180  H   UNK A   1      -6.722   1.731  -0.517  1.00  0.00    +0.063 HD
ATOM    181  H   UNK A   1      -5.487   4.297  -3.040  1.00  0.00    +0.043 HD
ATOM    182  H   UNK A   1      -6.561   4.356  -1.665  1.00  0.00    +0.043 HD
ATOM    183  H   UNK A   1      -3.329   3.486  -2.537  1.00  0.00    +0.063 HD
ATOM    184  H   UNK A   1      -0.867   2.478  -0.086  1.00  0.00    +0.058 HD
ATOM    185  H   UNK A   1      -3.184   0.222   1.935  1.00  0.00    +0.028 HD
ATOM    186  H   UNK A   1      -1.727   1.038   1.424  1.00  0.00    +0.028 HD
ATOM    187  H   UNK A   1      -2.276  -0.448   0.572  1.00  0.00    +0.028 HD
ENDROOT
TORSDOF 0