REMARK  Generated by RDKit with Gasteiger charges
REMARK  --------------------------------------------------
ROOT
ATOM      1  N   UNK A   1     -12.853  -2.100   0.180  1.00  0.00    -0.131 N 
ATOM      2  C   UNK A   1     -11.524  -1.506  -0.083  1.00  0.00    +0.121 C 
ATOM      3  C   UNK A   1     -10.674  -1.652   1.173  1.00  0.00    -0.037 C 
ATOM      4  C   UNK A   1     -10.908  -2.146  -1.351  1.00  0.00    +0.262 C 
ATOM      5  O   UNK A   1     -11.448  -3.089  -1.941  1.00  0.00    -0.271 OA
ATOM      6  N   UNK A   1      -9.879  -1.399  -1.767  1.00  0.00    -0.236 N 
ATOM      7  C   UNK A   1      -8.638  -2.126  -2.199  1.00  0.00    +0.143 C 
ATOM      8  C   UNK A   1      -7.642  -1.146  -2.918  1.00  0.00    +0.025 C 
ATOM      9  S   UNK A   1      -7.277   0.512  -2.155  1.00  0.00    -0.154 S 
ATOM     10  C   UNK A   1      -7.845  -2.897  -1.097  1.00  0.00    +0.267 C 
ATOM     11  O   UNK A   1      -7.975  -2.625   0.098  1.00  0.00    -0.270 OA
ATOM     12  N   UNK A   1      -7.065  -3.860  -1.650  1.00  0.00    -0.236 N 
ATOM     13  C   UNK A   1      -6.004  -4.462  -0.760  1.00  0.00    +0.138 C 
ATOM     14  C   UNK A   1      -6.515  -5.765  -0.078  1.00  0.00    +0.006 C 
ATOM     15  C   UNK A   1      -7.577  -5.668   0.987  1.00  0.00    -0.020 C 
ATOM     16  C   UNK A   1      -8.937  -5.585   0.757  1.00  0.00    +0.005 C 
ATOM     17  N   UNK A   1      -9.561  -5.404   1.951  1.00  0.00    -0.361 N 
ATOM     18  C   UNK A   1      -8.669  -5.537   2.987  1.00  0.00    +0.046 C 
ATOM     19  C   UNK A   1      -8.864  -5.489   4.374  1.00  0.00    -0.038 C 
ATOM     20  C   UNK A   1      -7.729  -5.554   5.191  1.00  0.00    -0.060 C 
ATOM     21  C   UNK A   1      -6.451  -5.646   4.638  1.00  0.00    -0.062 C 
ATOM     22  C   UNK A   1      -6.277  -5.691   3.250  1.00  0.00    -0.053 C 
ATOM     23  C   UNK A   1      -7.403  -5.653   2.404  1.00  0.00    +0.003 C 
ATOM     24  C   UNK A   1      -4.783  -4.969  -1.645  1.00  0.00    +0.267 C 
ATOM     25  O   UNK A   1      -4.896  -5.990  -2.341  1.00  0.00    -0.270 OA
ATOM     26  N   UNK A   1      -3.673  -4.201  -1.599  1.00  0.00    -0.236 N 
ATOM     27  C   UNK A   1      -2.511  -4.619  -0.686  1.00  0.00    +0.138 C 
ATOM     28  C   UNK A   1      -2.300  -6.152  -0.551  1.00  0.00    +0.004 C 
ATOM     29  C   UNK A   1      -2.009  -6.634   0.867  1.00  0.00    -0.045 C 
ATOM     30  C   UNK A   1      -0.782  -6.340   1.473  1.00  0.00    -0.059 C 
ATOM     31  C   UNK A   1      -0.518  -6.740   2.783  1.00  0.00    -0.062 C 
ATOM     32  C   UNK A   1      -1.472  -7.460   3.504  1.00  0.00    -0.062 C 
ATOM     33  C   UNK A   1      -2.697  -7.765   2.912  1.00  0.00    -0.062 C 
ATOM     34  C   UNK A   1      -2.963  -7.355   1.600  1.00  0.00    -0.059 C 
ATOM     35  C   UNK A   1      -1.135  -4.017  -1.266  1.00  0.00    +0.267 C 
ATOM     36  O   UNK A   1      -0.860  -4.160  -2.465  1.00  0.00    -0.270 OA
ATOM     37  N   UNK A   1      -0.341  -3.459  -0.318  1.00  0.00    -0.236 N 
ATOM     38  C   UNK A   1       0.779  -2.513  -0.786  1.00  0.00    +0.134 C 
ATOM     39  C   UNK A   1       0.298  -1.046  -0.651  1.00  0.00    -0.020 C 
ATOM     40  C   UNK A   1      -0.892  -0.605  -1.522  1.00  0.00    -0.033 C 
ATOM     41  C   UNK A   1      -0.596  -0.494  -3.021  1.00  0.00    +0.018 C 
ATOM     42  N   UNK A   1      -0.993  -1.706  -3.748  1.00  0.00    -0.357 N 
ATOM     43  C   UNK A   1      -2.246  -1.877  -4.233  1.00  0.00    +0.185 C 
ATOM     44  N   UNK A   1      -2.975  -1.017  -4.875  1.00  0.00    -0.270 N 
ATOM     45  N   UNK A   1      -2.715  -3.142  -4.108  1.00  0.00    -0.370 N 
ATOM     46  C   UNK A   1       2.205  -2.778  -0.044  1.00  0.00    +0.266 C 
ATOM     47  O   UNK A   1       2.698  -3.917  -0.100  1.00  0.00    -0.270 OA
ATOM     48  N   UNK A   1       2.741  -1.748   0.679  1.00  0.00    -0.235 N 
ATOM     49  C   UNK A   1       3.902  -0.926   0.064  1.00  0.00    +0.143 C 
ATOM     50  C   UNK A   1       3.774   0.653   0.437  1.00  0.00    +0.060 C 
ATOM     51  C   UNK A   1       3.344   1.757  -0.669  1.00  0.00    +0.244 C 
ATOM     52  O   UNK A   1       3.400   1.507  -1.877  1.00  0.00    -0.273 OA
ATOM     53  C   UNK A   1       5.418  -1.553   0.289  1.00  0.00    +0.267 C 
ATOM     54  O   UNK A   1       5.941  -2.123  -0.688  1.00  0.00    -0.270 OA
ATOM     55  N   UNK A   1       3.006   2.976  -0.124  1.00  0.00    -0.237 N 
ATOM     56  C   UNK A   1       2.410   4.002  -1.105  1.00  0.00    +0.143 C 
ATOM     57  C   UNK A   1       0.946   3.634  -1.503  1.00  0.00    +0.026 C 
ATOM     58  S   UNK A   1      -0.394   3.931  -0.255  1.00  0.00    -0.142 S 
ATOM     59  C   UNK A   1       2.504   5.550  -0.711  1.00  0.00    +0.267 C 
ATOM     60  O   UNK A   1       3.015   5.955   0.337  1.00  0.00    -0.270 OA
ATOM     61  N   UNK A   1       6.057  -1.362   1.502  1.00  0.00    -0.236 N 
ATOM     62  C   UNK A   1       7.576  -1.673   1.489  1.00  0.00    +0.134 C 
ATOM     63  C   UNK A   1       8.320  -0.492   0.796  1.00  0.00    -0.021 C 
ATOM     64  C   UNK A   1       8.896  -0.815  -0.594  1.00  0.00    -0.050 C 
ATOM     65  C   UNK A   1       9.935  -1.944  -0.671  1.00  0.00    -0.041 C 
ATOM     66  C   UNK A   1      11.390  -1.500  -0.502  1.00  0.00    -0.008 C 
ATOM     67  N   UNK A   1      11.801  -1.120   0.846  1.00  0.00    -0.330 N 
ATOM     68  C   UNK A   1       8.311  -1.904   2.904  1.00  0.00    +0.266 C 
ATOM     69  O   UNK A   1       7.881  -1.451   3.967  1.00  0.00    -0.270 OA
ATOM     70  N   UNK A   1       2.057   6.365  -1.708  1.00  0.00    -0.233 N 
ATOM     71  C   UNK A   1       1.690   7.790  -1.341  1.00  0.00    +0.160 C 
ATOM     72  C   UNK A   1       2.961   8.693  -1.342  1.00  0.00    +0.083 C 
ATOM     73  C   UNK A   1       2.672  10.191  -1.279  1.00  0.00    -0.036 C 
ATOM     74  O   UNK A   1       3.793   8.432  -0.188  1.00  0.00    -0.391 OA
ATOM     75  C   UNK A   1       0.660   8.388  -2.393  1.00  0.00    +0.269 C 
ATOM     76  O   UNK A   1       0.857   8.331  -3.612  1.00  0.00    -0.270 OA
ATOM     77  N   UNK A   1       9.508  -2.568   2.771  1.00  0.00    -0.236 N 
ATOM     78  C   UNK A   1      10.147  -3.010   4.054  1.00  0.00    +0.131 C 
ATOM     79  C   UNK A   1       9.356  -4.193   4.639  1.00  0.00    -0.033 C 
ATOM     80  C   UNK A   1      11.639  -3.465   3.880  1.00  0.00    +0.266 C 
ATOM     81  O   UNK A   1      12.146  -3.823   2.817  1.00  0.00    -0.270 OA
ATOM     82  N   UNK A   1      -0.330   9.094  -1.793  1.00  0.00    -0.236 N 
ATOM     83  C   UNK A   1      -1.650   9.038  -2.483  1.00  0.00    +0.135 C 
ATOM     84  C   UNK A   1      -2.675   8.218  -1.644  1.00  0.00    -0.014 C 
ATOM     85  C   UNK A   1      -2.275   6.848  -1.056  1.00  0.00    -0.022 C 
ATOM     86  S   UNK A   1      -2.233   5.461  -2.177  1.00  0.00    -0.241 S 
ATOM     87  C   UNK A   1      -3.818   5.331  -2.954  1.00  0.00    -0.036 C 
ATOM     88  C   UNK A   1      -2.218  10.517  -2.658  1.00  0.00    +0.266 C 
ATOM     89  O   UNK A   1      -1.804  11.515  -2.065  1.00  0.00    -0.270 OA
ATOM     90  N   UNK A   1      12.297  -3.539   5.058  1.00  0.00    -0.233 N 
ATOM     91  C   UNK A   1      13.776  -3.662   4.969  1.00  0.00    +0.159 C 
ATOM     92  C   UNK A   1      14.362  -3.098   6.282  1.00  0.00    +0.024 C 
ATOM     93  S   UNK A   1      16.198  -2.941   6.312  1.00  0.00    -0.176 S 
ATOM     94  C   UNK A   1      14.196  -5.122   4.761  1.00  0.00    +0.329 C 
ATOM     95  O   UNK A   1      15.037  -5.720   5.434  1.00  0.00    -0.250 OA
ATOM     96  O   UNK A   1      13.641  -5.706   3.675  1.00  0.00    -0.480 OA
ATOM     97  N   UNK A   1      -3.205  10.565  -3.586  1.00  0.00    -0.238 N 
ATOM     98  C   UNK A   1      -4.036  11.780  -3.525  1.00  0.00    +0.140 C 
ATOM     99  C   UNK A   1      -3.577  12.811  -4.539  1.00  0.00    +0.325 C 
ATOM    100  O   UNK A   1      -4.213  13.820  -4.844  1.00  0.00    -0.250 OA
ATOM    101  O   UNK A   1      -2.391  12.504  -5.118  1.00  0.00    -0.480 OA
ATOM    102  C   UNK A   1      -4.794   2.829   0.998  1.00  0.00    -0.059 C 
ATOM    103  C   UNK A   1      -5.394   1.823   0.240  1.00  0.00    -0.058 C 
ATOM    104  C   UNK A   1      -4.896   1.491  -1.017  1.00  0.00    -0.038 C 
ATOM    105  C   UNK A   1      -5.478   0.290  -1.769  1.00  0.00    +0.019 C 
ATOM    106  C   UNK A   1      -3.772   2.210  -1.488  1.00  0.00    -0.053 C 
ATOM    107  C   UNK A   1      -3.126   3.250  -0.736  1.00  0.00    -0.023 C 
ATOM    108  C   UNK A   1      -1.855   3.886  -1.349  1.00  0.00    +0.058 C 
ATOM    109  C   UNK A   1      -3.666   3.545   0.538  1.00  0.00    -0.046 C 
ATOM    110  C   UNK A   1      -3.032   4.465   1.544  1.00  0.00    -0.039 C 
ATOM    111  H   UNK A   1     -11.699  -0.442  -0.285  1.00  0.00    +0.060 HD
ATOM    112  H   UNK A   1     -10.406  -2.695   1.352  1.00  0.00    +0.025 HD
ATOM    113  H   UNK A   1     -11.206  -1.276   2.056  1.00  0.00    +0.025 HD
ATOM    114  H   UNK A   1      -9.755  -1.065   1.087  1.00  0.00    +0.025 HD
ATOM    115  H   UNK A   1      -8.928  -2.873  -2.952  1.00  0.00    +0.067 HD
ATOM    116  H   UNK A   1      -8.089  -0.891  -3.887  1.00  0.00    +0.041 HD
ATOM    117  H   UNK A   1      -6.692  -1.641  -3.148  1.00  0.00    +0.041 HD
ATOM    118  H   UNK A   1      -5.626  -3.767   0.001  1.00  0.00    +0.066 HD
ATOM    119  H   UNK A   1      -6.898  -6.454  -0.848  1.00  0.00    +0.034 HD
ATOM    120  H   UNK A   1      -5.658  -6.287   0.364  1.00  0.00    +0.034 HD
ATOM    121  H   UNK A   1      -9.460  -5.480  -0.186  1.00  0.00    +0.082 HD
ATOM    122  H   UNK A   1     -10.524  -5.122   2.034  1.00  0.00    +0.166 HD
ATOM    123  H   UNK A   1      -9.854  -5.363   4.791  1.00  0.00    +0.064 HD
ATOM    124  H   UNK A   1      -7.838  -5.482   6.269  1.00  0.00    +0.062 HD
ATOM    125  H   UNK A   1      -5.566  -5.635   5.267  1.00  0.00    +0.062 HD
ATOM    126  H   UNK A   1      -5.280  -5.693   2.810  1.00  0.00    +0.063 HD
ATOM    127  H   UNK A   1      -2.688  -4.165   0.297  1.00  0.00    +0.066 HD
ATOM    128  H   UNK A   1      -3.162  -6.730  -0.900  1.00  0.00    +0.034 HD
ATOM    129  H   UNK A   1      -1.470  -6.494  -1.180  1.00  0.00    +0.034 HD
ATOM    130  H   UNK A   1      -0.041  -5.740   0.936  1.00  0.00    +0.063 HD
ATOM    131  H   UNK A   1       0.425  -6.437   3.228  1.00  0.00    +0.062 HD
ATOM    132  H   UNK A   1      -1.269  -7.734   4.530  1.00  0.00    +0.062 HD
ATOM    133  H   UNK A   1      -3.465  -8.286   3.474  1.00  0.00    +0.062 HD
ATOM    134  H   UNK A   1      -3.929  -7.555   1.146  1.00  0.00    +0.063 HD
ATOM    135  H   UNK A   1       1.039  -2.691  -1.839  1.00  0.00    +0.066 HD
ATOM    136  H   UNK A   1       1.125  -0.367  -0.884  1.00  0.00    +0.029 HD
ATOM    137  H   UNK A   1       0.027  -0.849   0.399  1.00  0.00    +0.029 HD
ATOM    138  H   UNK A   1      -1.161   0.402  -1.177  1.00  0.00    +0.029 HD
ATOM    139  H   UNK A   1      -1.777  -1.222  -1.330  1.00  0.00    +0.029 HD
ATOM    140  H   UNK A   1      -1.144   0.367  -3.427  1.00  0.00    +0.049 HD
ATOM    141  H   UNK A   1       0.466  -0.304  -3.203  1.00  0.00    +0.049 HD
ATOM    142  H   UNK A   1      -0.678  -2.504  -3.170  1.00  0.00    +0.163 HD
ATOM    143  H   UNK A   1      -3.828  -1.567  -5.014  1.00  0.00    +0.191 HD
ATOM    144  H   UNK A   1      -1.980  -3.745  -3.703  1.00  0.00    +0.159 HD
ATOM    145  H   UNK A   1      -3.315  -3.209  -3.256  1.00  0.00    +0.159 HD
ATOM    146  H   UNK A   1       3.781  -0.958  -1.030  1.00  0.00    +0.066 HD
ATOM    147  H   UNK A   1       4.754   0.996   0.793  1.00  0.00    +0.040 HD
ATOM    148  H   UNK A   1       3.064   0.751   1.272  1.00  0.00    +0.040 HD
ATOM    149  H   UNK A   1       3.011   3.948  -2.027  1.00  0.00    +0.067 HD
ATOM    150  H   UNK A   1       0.885   2.576  -1.784  1.00  0.00    +0.041 HD
ATOM    151  H   UNK A   1       0.679   4.213  -2.395  1.00  0.00    +0.041 HD
ATOM    152  H   UNK A   1       7.726  -2.616   0.946  1.00  0.00    +0.066 HD
ATOM    153  H   UNK A   1       7.636   0.356   0.670  1.00  0.00    +0.029 HD
ATOM    154  H   UNK A   1       9.129  -0.107   1.428  1.00  0.00    +0.029 HD
ATOM    155  H   UNK A   1       9.320   0.101  -1.026  1.00  0.00    +0.027 HD
ATOM    156  H   UNK A   1       8.063  -1.085  -1.250  1.00  0.00    +0.027 HD
ATOM    157  H   UNK A   1       9.705  -2.761   0.019  1.00  0.00    +0.028 HD
ATOM    158  H   UNK A   1       9.858  -2.383  -1.674  1.00  0.00    +0.028 HD
ATOM    159  H   UNK A   1      12.037  -2.327  -0.817  1.00  0.00    +0.043 HD
ATOM    160  H   UNK A   1      11.598  -0.658  -1.175  1.00  0.00    +0.043 HD
ATOM    161  H   UNK A   1      11.546  -1.925   1.464  1.00  0.00    +0.118 HD
ATOM    162  H   UNK A   1      11.082  -0.477   1.204  1.00  0.00    +0.118 HD
ATOM    163  H   UNK A   1       1.224   7.813  -0.344  1.00  0.00    +0.069 HD
ATOM    164  H   UNK A   1       3.580   8.486  -2.222  1.00  0.00    +0.063 HD
ATOM    165  H   UNK A   1       2.160  10.561  -2.171  1.00  0.00    +0.026 HD
ATOM    166  H   UNK A   1       2.066  10.432  -0.397  1.00  0.00    +0.026 HD
ATOM    167  H   UNK A   1       3.605  10.755  -1.173  1.00  0.00    +0.026 HD
ATOM    168  H   UNK A   1       3.572   7.478  -0.000  1.00  0.00    +0.211 HD
ATOM    169  H   UNK A   1      10.166  -2.178   4.774  1.00  0.00    +0.065 HD
ATOM    170  H   UNK A   1       9.281  -5.005   3.908  1.00  0.00    +0.026 HD
ATOM    171  H   UNK A   1       9.827  -4.605   5.532  1.00  0.00    +0.026 HD
ATOM    172  H   UNK A   1       8.337  -3.897   4.911  1.00  0.00    +0.026 HD
ATOM    173  H   UNK A   1      -1.586   8.594  -3.487  1.00  0.00    +0.066 HD
ATOM    174  H   UNK A   1      -3.590   8.097  -2.234  1.00  0.00    +0.030 HD
ATOM    175  H   UNK A   1      -2.969   8.844  -0.788  1.00  0.00    +0.030 HD
ATOM    176  H   UNK A   1      -3.044   6.590  -0.322  1.00  0.00    +0.036 HD
ATOM    177  H   UNK A   1      -1.312   6.893  -0.541  1.00  0.00    +0.036 HD
ATOM    178  H   UNK A   1      -1.279   5.693  -3.110  1.00  0.00    +0.084 HD
ATOM    179  H   UNK A   1      -3.959   6.209  -3.583  1.00  0.00    +0.033 HD
ATOM    180  H   UNK A   1      -3.827   4.440  -3.580  1.00  0.00    +0.033 HD
ATOM    181  H   UNK A   1      -4.597   5.291  -2.191  1.00  0.00    +0.033 HD
ATOM    182  H   UNK A   1      14.195  -3.076   4.139  1.00  0.00    +0.068 HD
ATOM    183  H   UNK A   1      14.089  -3.734   7.132  1.00  0.00    +0.041 HD
ATOM    184  H   UNK A   1      13.962  -2.098   6.484  1.00  0.00    +0.041 HD
ATOM    185  H   UNK A   1      16.403  -4.212   5.935  1.00  0.00    +0.102 HD
ATOM    186  H   UNK A   1      12.968  -5.054   3.312  1.00  0.00    +0.296 HD
ATOM    187  H   UNK A   1      -5.074  11.523  -3.786  1.00  0.00    +0.064 HD
ATOM    188  H   UNK A   1      -4.068  12.268  -2.539  1.00  0.00    +0.064 HD
ATOM    189  H   UNK A   1      -2.133  11.657  -4.643  1.00  0.00    +0.296 HD
ATOM    190  H   UNK A   1      -5.173   3.009   1.997  1.00  0.00    +0.063 HD
ATOM    191  H   UNK A   1      -6.218   1.246   0.655  1.00  0.00    +0.063 HD
ATOM    192  H   UNK A   1      -5.347  -0.608  -1.155  1.00  0.00    +0.043 HD
ATOM    193  H   UNK A   1      -4.945   0.145  -2.716  1.00  0.00    +0.043 HD
ATOM    194  H   UNK A   1      -3.332   1.906  -2.440  1.00  0.00    +0.063 HD
ATOM    195  H   UNK A   1      -1.556   3.240  -2.183  1.00  0.00    +0.057 HD
ATOM    196  H   UNK A   1      -2.415   5.243   1.102  1.00  0.00    +0.028 HD
ATOM    197  H   UNK A   1      -2.416   3.882   2.241  1.00  0.00    +0.028 HD
ATOM    198  H   UNK A   1      -3.807   4.985   2.122  1.00  0.00    +0.028 HD
ENDROOT
TORSDOF 0