REMARK  Generated by RDKit with Gasteiger charges
REMARK  --------------------------------------------------
ROOT
ATOM      1  N   UNK A   1       7.895   9.891  -0.923  1.00  0.00    -0.131 N 
ATOM      2  C   UNK A   1       8.178   8.532  -0.403  1.00  0.00    +0.121 C 
ATOM      3  C   UNK A   1       8.821   8.712   0.973  1.00  0.00    -0.037 C 
ATOM      4  C   UNK A   1       6.881   7.689  -0.488  1.00  0.00    +0.262 C 
ATOM      5  O   UNK A   1       6.186   7.720  -1.507  1.00  0.00    -0.271 OA
ATOM      6  N   UNK A   1       6.612   7.045   0.653  1.00  0.00    -0.236 N 
ATOM      7  C   UNK A   1       6.767   5.538   0.648  1.00  0.00    +0.143 C 
ATOM      8  C   UNK A   1       5.570   4.757  -0.001  1.00  0.00    +0.025 C 
ATOM      9  S   UNK A   1       3.845   5.145   0.686  1.00  0.00    -0.154 S 
ATOM     10  C   UNK A   1       8.193   5.038   0.142  1.00  0.00    +0.267 C 
ATOM     11  O   UNK A   1       8.947   5.740  -0.542  1.00  0.00    -0.270 OA
ATOM     12  N   UNK A   1       8.568   3.855   0.680  1.00  0.00    -0.236 N 
ATOM     13  C   UNK A   1       8.664   2.706  -0.287  1.00  0.00    +0.135 C 
ATOM     14  C   UNK A   1       9.768   2.898  -1.360  1.00  0.00    -0.013 C 
ATOM     15  C   UNK A   1       9.716   1.859  -2.493  1.00  0.00    +0.029 C 
ATOM     16  C   UNK A   1      10.905   0.913  -2.495  1.00  0.00    +0.217 C 
ATOM     17  O   UNK A   1      11.880   1.085  -3.239  1.00  0.00    -0.275 OA
ATOM     18  N   UNK A   1      10.852  -0.141  -1.623  1.00  0.00    -0.370 N 
ATOM     19  C   UNK A   1       9.008   1.365   0.468  1.00  0.00    +0.266 C 
ATOM     20  O   UNK A   1       9.966   1.272   1.242  1.00  0.00    -0.270 OA
ATOM     21  N   UNK A   1       8.271   0.349  -0.021  1.00  0.00    -0.236 N 
ATOM     22  C   UNK A   1       8.390  -0.999   0.630  1.00  0.00    +0.138 C 
ATOM     23  C   UNK A   1       7.657  -1.041   1.991  1.00  0.00    +0.004 C 
ATOM     24  C   UNK A   1       8.482  -1.696   3.093  1.00  0.00    -0.045 C 
ATOM     25  C   UNK A   1       8.309  -3.049   3.412  1.00  0.00    -0.055 C 
ATOM     26  C   UNK A   1       9.048  -3.634   4.442  1.00  0.00    -0.020 C 
ATOM     27  C   UNK A   1       9.971  -2.863   5.142  1.00  0.00    +0.115 C 
ATOM     28  O   UNK A   1      10.681  -3.442   6.165  1.00  0.00    -0.508 OA
ATOM     29  C   UNK A   1      10.167  -1.519   4.825  1.00  0.00    -0.020 C 
ATOM     30  C   UNK A   1       9.426  -0.940   3.797  1.00  0.00    -0.055 C 
ATOM     31  C   UNK A   1       7.982  -2.082  -0.461  1.00  0.00    +0.267 C 
ATOM     32  O   UNK A   1       8.697  -2.191  -1.474  1.00  0.00    -0.270 OA
ATOM     33  N   UNK A   1       6.994  -2.955  -0.155  1.00  0.00    -0.236 N 
ATOM     34  C   UNK A   1       5.571  -2.443  -0.368  1.00  0.00    +0.138 C 
ATOM     35  C   UNK A   1       5.316  -1.916  -1.807  1.00  0.00    +0.004 C 
ATOM     36  C   UNK A   1       5.025  -2.942  -2.887  1.00  0.00    -0.045 C 
ATOM     37  C   UNK A   1       6.054  -3.602  -3.570  1.00  0.00    -0.055 C 
ATOM     38  C   UNK A   1       5.757  -4.568  -4.539  1.00  0.00    -0.020 C 
ATOM     39  C   UNK A   1       4.429  -4.884  -4.802  1.00  0.00    +0.115 C 
ATOM     40  O   UNK A   1       4.142  -5.883  -5.698  1.00  0.00    -0.508 OA
ATOM     41  C   UNK A   1       3.392  -4.233  -4.136  1.00  0.00    -0.020 C 
ATOM     42  C   UNK A   1       3.695  -3.265  -3.184  1.00  0.00    -0.055 C 
ATOM     43  C   UNK A   1       4.429  -3.486   0.039  1.00  0.00    +0.267 C 
ATOM     44  O   UNK A   1       4.625  -4.707   0.024  1.00  0.00    -0.270 OA
ATOM     45  N   UNK A   1       3.266  -2.850   0.359  1.00  0.00    -0.236 N 
ATOM     46  C   UNK A   1       1.977  -3.657   0.289  1.00  0.00    +0.138 C 
ATOM     47  C   UNK A   1       1.871  -4.653   1.476  1.00  0.00    +0.004 C 
ATOM     48  C   UNK A   1       0.962  -5.844   1.190  1.00  0.00    -0.045 C 
ATOM     49  C   UNK A   1       1.407  -6.934   0.427  1.00  0.00    -0.055 C 
ATOM     50  C   UNK A   1       0.514  -7.944   0.048  1.00  0.00    -0.020 C 
ATOM     51  C   UNK A   1      -0.827  -7.840   0.407  1.00  0.00    +0.115 C 
ATOM     52  O   UNK A   1      -1.733  -8.747  -0.078  1.00  0.00    -0.508 OA
ATOM     53  C   UNK A   1      -1.277  -6.781   1.188  1.00  0.00    -0.020 C 
ATOM     54  C   UNK A   1      -0.377  -5.800   1.589  1.00  0.00    -0.055 C 
ATOM     55  C   UNK A   1       0.666  -2.710   0.078  1.00  0.00    +0.267 C 
ATOM     56  O   UNK A   1       0.471  -2.203  -1.033  1.00  0.00    -0.270 OA
ATOM     57  N   UNK A   1      -0.119  -2.593   1.175  1.00  0.00    -0.235 N 
ATOM     58  C   UNK A   1      -1.422  -1.796   1.180  1.00  0.00    +0.143 C 
ATOM     59  C   UNK A   1      -1.334  -0.382   0.460  1.00  0.00    +0.027 C 
ATOM     60  S   UNK A   1      -1.944   1.096   1.503  1.00  0.00    -0.140 S 
ATOM     61  C   UNK A   1      -2.791  -2.580   0.839  1.00  0.00    +0.267 C 
ATOM     62  O   UNK A   1      -3.480  -2.233  -0.123  1.00  0.00    -0.270 OA
ATOM     63  N   UNK A   1      -3.125  -3.565   1.722  1.00  0.00    -0.233 N 
ATOM     64  C   UNK A   1      -4.576  -3.620   2.271  1.00  0.00    +0.160 C 
ATOM     65  C   UNK A   1      -4.846  -2.308   3.080  1.00  0.00    +0.083 C 
ATOM     66  C   UNK A   1      -6.049  -2.272   4.016  1.00  0.00    -0.036 C 
ATOM     67  O   UNK A   1      -3.702  -2.154   3.984  1.00  0.00    -0.391 OA
ATOM     68  C   UNK A   1      -5.743  -4.265   1.394  1.00  0.00    +0.269 C 
ATOM     69  O   UNK A   1      -5.495  -5.076   0.493  1.00  0.00    -0.270 OA
ATOM     70  N   UNK A   1      -6.989  -4.092   1.916  1.00  0.00    -0.236 N 
ATOM     71  C   UNK A   1      -8.069  -3.668   0.939  1.00  0.00    +0.138 C 
ATOM     72  C   UNK A   1      -8.677  -4.888   0.188  1.00  0.00    +0.004 C 
ATOM     73  C   UNK A   1      -8.154  -5.166  -1.215  1.00  0.00    -0.045 C 
ATOM     74  C   UNK A   1      -7.709  -6.450  -1.566  1.00  0.00    -0.055 C 
ATOM     75  C   UNK A   1      -7.145  -6.692  -2.819  1.00  0.00    -0.020 C 
ATOM     76  C   UNK A   1      -7.012  -5.635  -3.710  1.00  0.00    +0.115 C 
ATOM     77  O   UNK A   1      -6.283  -5.824  -4.853  1.00  0.00    -0.508 OA
ATOM     78  C   UNK A   1      -7.486  -4.364  -3.404  1.00  0.00    -0.020 C 
ATOM     79  C   UNK A   1      -8.074  -4.136  -2.161  1.00  0.00    -0.055 C 
ATOM     80  C   UNK A   1      -9.307  -2.974   1.677  1.00  0.00    +0.267 C 
ATOM     81  O   UNK A   1      -9.807  -3.448   2.706  1.00  0.00    -0.270 OA
ATOM     82  N   UNK A   1      -9.899  -2.007   0.924  1.00  0.00    -0.236 N 
ATOM     83  C   UNK A   1      -9.611  -0.592   1.394  1.00  0.00    +0.131 C 
ATOM     84  C   UNK A   1      -8.158  -0.230   1.045  1.00  0.00    -0.033 C 
ATOM     85  C   UNK A   1     -10.618   0.492   0.784  1.00  0.00    +0.266 C 
ATOM     86  O   UNK A   1     -11.661   0.179   0.195  1.00  0.00    -0.270 OA
ATOM     87  N   UNK A   1     -10.336   1.771   1.158  1.00  0.00    -0.236 N 
ATOM     88  C   UNK A   1      -9.603   2.599   0.123  1.00  0.00    +0.136 C 
ATOM     89  C   UNK A   1     -10.576   3.461  -0.750  1.00  0.00    -0.015 C 
ATOM     90  C   UNK A   1     -11.579   4.281   0.067  1.00  0.00    -0.060 C 
ATOM     91  C   UNK A   1     -11.316   2.636  -1.806  1.00  0.00    -0.060 C 
ATOM     92  C   UNK A   1      -8.519   3.599   0.753  1.00  0.00    +0.267 C 
ATOM     93  O   UNK A   1      -8.690   4.146   1.847  1.00  0.00    -0.270 OA
ATOM     94  N   UNK A   1      -7.511   3.833  -0.128  1.00  0.00    -0.235 N 
ATOM     95  C   UNK A   1      -6.250   4.512   0.391  1.00  0.00    +0.143 C 
ATOM     96  C   UNK A   1      -5.009   3.571   0.050  1.00  0.00    +0.027 C 
ATOM     97  S   UNK A   1      -3.386   3.786   1.017  1.00  0.00    -0.140 S 
ATOM     98  C   UNK A   1      -6.276   5.970  -0.253  1.00  0.00    +0.267 C 
ATOM     99  O   UNK A   1      -7.304   6.627  -0.447  1.00  0.00    -0.270 OA
ATOM    100  N   UNK A   1      -5.076   6.489  -0.563  1.00  0.00    -0.238 N 
ATOM    101  C   UNK A   1      -4.909   7.891  -0.143  1.00  0.00    +0.140 C 
ATOM    102  C   UNK A   1      -5.407   8.935  -1.126  1.00  0.00    +0.325 C 
ATOM    103  O   UNK A   1      -4.979  10.089  -1.185  1.00  0.00    -0.250 OA
ATOM    104  O   UNK A   1      -6.442   8.540  -1.903  1.00  0.00    -0.480 OA
ATOM    105  C   UNK A   1       0.102   4.601  -2.027  1.00  0.00    -0.059 C 
ATOM    106  C   UNK A   1       1.346   4.515  -1.401  1.00  0.00    -0.058 C 
ATOM    107  C   UNK A   1       1.509   3.752  -0.244  1.00  0.00    -0.038 C 
ATOM    108  C   UNK A   1       2.925   3.558   0.325  1.00  0.00    +0.019 C 
ATOM    109  C   UNK A   1       0.356   3.077   0.272  1.00  0.00    -0.053 C 
ATOM    110  C   UNK A   1      -0.939   3.142  -0.346  1.00  0.00    -0.022 C 
ATOM    111  C   UNK A   1      -2.221   2.424   0.215  1.00  0.00    +0.076 C 
ATOM    112  C   UNK A   1      -1.028   3.916  -1.535  1.00  0.00    -0.046 C 
ATOM    113  C   UNK A   1      -2.309   4.086  -2.311  1.00  0.00    -0.039 C 
ATOM    114  H   UNK A   1       8.909   8.081  -1.085  1.00  0.00    +0.060 HD
ATOM    115  H   UNK A   1       9.712   9.346   0.908  1.00  0.00    +0.025 HD
ATOM    116  H   UNK A   1       9.138   7.754   1.397  1.00  0.00    +0.025 HD
ATOM    117  H   UNK A   1       8.128   9.183   1.682  1.00  0.00    +0.025 HD
ATOM    118  H   UNK A   1       6.749   5.257   1.715  1.00  0.00    +0.067 HD
ATOM    119  H   UNK A   1       5.728   3.683   0.146  1.00  0.00    +0.041 HD
ATOM    120  H   UNK A   1       5.536   4.944  -1.081  1.00  0.00    +0.041 HD
ATOM    121  H   UNK A   1       7.694   2.587  -0.796  1.00  0.00    +0.066 HD
ATOM    122  H   UNK A   1      10.758   2.908  -0.888  1.00  0.00    +0.030 HD
ATOM    123  H   UNK A   1       9.649   3.875  -1.839  1.00  0.00    +0.030 HD
ATOM    124  H   UNK A   1       9.739   2.389  -3.455  1.00  0.00    +0.037 HD
ATOM    125  H   UNK A   1       8.787   1.281  -2.502  1.00  0.00    +0.037 HD
ATOM    126  H   UNK A   1       9.964  -0.676  -1.713  1.00  0.00    +0.159 HD
ATOM    127  H   UNK A   1      10.589   0.195  -0.684  1.00  0.00    +0.159 HD
ATOM    128  H   UNK A   1       9.454  -1.231   0.808  1.00  0.00    +0.066 HD
ATOM    129  H   UNK A   1       7.410  -0.027   2.336  1.00  0.00    +0.034 HD
ATOM    130  H   UNK A   1       6.691  -1.549   1.957  1.00  0.00    +0.034 HD
ATOM    131  H   UNK A   1       7.576  -3.624   2.840  1.00  0.00    +0.063 HD
ATOM    132  H   UNK A   1       8.885  -4.678   4.679  1.00  0.00    +0.066 HD
ATOM    133  H   UNK A   1      11.096  -2.693   6.616  1.00  0.00    +0.293 HD
ATOM    134  H   UNK A   1      10.891  -0.899   5.338  1.00  0.00    +0.066 HD
ATOM    135  H   UNK A   1       9.566   0.103   3.511  1.00  0.00    +0.063 HD
ATOM    136  H   UNK A   1       5.424  -1.577   0.294  1.00  0.00    +0.066 HD
ATOM    137  H   UNK A   1       6.143  -1.279  -2.149  1.00  0.00    +0.034 HD
ATOM    138  H   UNK A   1       4.456  -1.233  -1.765  1.00  0.00    +0.034 HD
ATOM    139  H   UNK A   1       7.080  -3.378  -3.288  1.00  0.00    +0.063 HD
ATOM    140  H   UNK A   1       6.566  -5.091  -5.029  1.00  0.00    +0.066 HD
ATOM    141  H   UNK A   1       3.223  -6.115  -5.470  1.00  0.00    +0.293 HD
ATOM    142  H   UNK A   1       2.346  -4.471  -4.287  1.00  0.00    +0.066 HD
ATOM    143  H   UNK A   1       2.891  -2.796  -2.607  1.00  0.00    +0.063 HD
ATOM    144  H   UNK A   1       1.990  -4.252  -0.637  1.00  0.00    +0.066 HD
ATOM    145  H   UNK A   1       1.543  -4.148   2.396  1.00  0.00    +0.034 HD
ATOM    146  H   UNK A   1       2.853  -5.067   1.736  1.00  0.00    +0.034 HD
ATOM    147  H   UNK A   1       2.435  -6.924   0.071  1.00  0.00    +0.063 HD
ATOM    148  H   UNK A   1       0.853  -8.746  -0.593  1.00  0.00    +0.066 HD
ATOM    149  H   UNK A   1      -2.561  -8.221  -0.084  1.00  0.00    +0.293 HD
ATOM    150  H   UNK A   1      -2.327  -6.622   1.433  1.00  0.00    +0.066 HD
ATOM    151  H   UNK A   1      -0.756  -4.922   2.117  1.00  0.00    +0.063 HD
ATOM    152  H   UNK A   1      -1.549  -1.537   2.242  1.00  0.00    +0.067 HD
ATOM    153  H   UNK A   1      -1.901  -0.382  -0.474  1.00  0.00    +0.041 HD
ATOM    154  H   UNK A   1      -0.294  -0.128   0.238  1.00  0.00    +0.041 HD
ATOM    155  H   UNK A   1      -4.488  -4.392   3.059  1.00  0.00    +0.069 HD
ATOM    156  H   UNK A   1      -4.859  -1.433   2.419  1.00  0.00    +0.063 HD
ATOM    157  H   UNK A   1      -5.942  -1.455   4.739  1.00  0.00    +0.026 HD
ATOM    158  H   UNK A   1      -6.122  -3.195   4.601  1.00  0.00    +0.026 HD
ATOM    159  H   UNK A   1      -6.987  -2.104   3.486  1.00  0.00    +0.026 HD
ATOM    160  H   UNK A   1      -2.984  -2.450   3.368  1.00  0.00    +0.211 HD
ATOM    161  H   UNK A   1      -7.654  -2.934   0.237  1.00  0.00    +0.066 HD
ATOM    162  H   UNK A   1      -8.560  -5.791   0.803  1.00  0.00    +0.034 HD
ATOM    163  H   UNK A   1      -9.763  -4.769   0.068  1.00  0.00    +0.034 HD
ATOM    164  H   UNK A   1      -7.704  -7.225  -0.804  1.00  0.00    +0.063 HD
ATOM    165  H   UNK A   1      -6.714  -7.657  -3.040  1.00  0.00    +0.066 HD
ATOM    166  H   UNK A   1      -5.563  -5.166  -4.725  1.00  0.00    +0.293 HD
ATOM    167  H   UNK A   1      -7.338  -3.522  -4.072  1.00  0.00    +0.066 HD
ATOM    168  H   UNK A   1      -8.378  -3.127  -1.874  1.00  0.00    +0.063 HD
ATOM    169  H   UNK A   1      -9.736  -0.527   2.485  1.00  0.00    +0.065 HD
ATOM    170  H   UNK A   1      -7.441  -0.944   1.454  1.00  0.00    +0.026 HD
ATOM    171  H   UNK A   1      -8.012  -0.199  -0.041  1.00  0.00    +0.026 HD
ATOM    172  H   UNK A   1      -7.872   0.745   1.449  1.00  0.00    +0.026 HD
ATOM    173  H   UNK A   1      -9.040   1.938  -0.555  1.00  0.00    +0.066 HD
ATOM    174  H   UNK A   1      -9.965   4.183  -1.311  1.00  0.00    +0.032 HD
ATOM    175  H   UNK A   1     -12.161   4.939  -0.589  1.00  0.00    +0.023 HD
ATOM    176  H   UNK A   1     -11.074   4.917   0.799  1.00  0.00    +0.023 HD
ATOM    177  H   UNK A   1     -12.290   3.641   0.600  1.00  0.00    +0.023 HD
ATOM    178  H   UNK A   1     -12.133   2.054  -1.373  1.00  0.00    +0.023 HD
ATOM    179  H   UNK A   1     -10.635   1.955  -2.328  1.00  0.00    +0.023 HD
ATOM    180  H   UNK A   1     -11.758   3.299  -2.561  1.00  0.00    +0.023 HD
ATOM    181  H   UNK A   1      -6.270   4.653   1.480  1.00  0.00    +0.067 HD
ATOM    182  H   UNK A   1      -4.775   3.664  -1.014  1.00  0.00    +0.041 HD
ATOM    183  H   UNK A   1      -5.298   2.530   0.237  1.00  0.00    +0.041 HD
ATOM    184  H   UNK A   1      -3.838   8.086  -0.012  1.00  0.00    +0.064 HD
ATOM    185  H   UNK A   1      -5.387   8.103   0.824  1.00  0.00    +0.064 HD
ATOM    186  H   UNK A   1      -6.665   7.622  -1.550  1.00  0.00    +0.296 HD
ATOM    187  H   UNK A   1       0.019   5.205  -2.925  1.00  0.00    +0.063 HD
ATOM    188  H   UNK A   1       2.199   5.027  -1.837  1.00  0.00    +0.063 HD
ATOM    189  H   UNK A   1       2.869   3.002   1.267  1.00  0.00    +0.043 HD
ATOM    190  H   UNK A   1       3.500   2.960  -0.388  1.00  0.00    +0.043 HD
ATOM    191  H   UNK A   1       0.484   2.454   1.157  1.00  0.00    +0.063 HD
ATOM    192  H   UNK A   1      -2.781   1.954  -0.596  1.00  0.00    +0.058 HD
ATOM    193  H   UNK A   1      -2.872   3.153  -2.377  1.00  0.00    +0.028 HD
ATOM    194  H   UNK A   1      -2.919   4.872  -1.861  1.00  0.00    +0.028 HD
ATOM    195  H   UNK A   1      -2.105   4.383  -3.346  1.00  0.00    +0.028 HD
ENDROOT
TORSDOF 0