REMARK  Generated by RDKit with Gasteiger charges
REMARK  --------------------------------------------------
ROOT
ATOM      1  N   UNK A   1      -0.034   9.779   2.248  1.00  0.00    -0.131 N 
ATOM      2  C   UNK A   1       0.564   8.427   2.134  1.00  0.00    +0.121 C 
ATOM      3  C   UNK A   1       1.663   8.517   1.072  1.00  0.00    -0.037 C 
ATOM      4  C   UNK A   1       1.186   8.062   3.502  1.00  0.00    +0.262 C 
ATOM      5  O   UNK A   1       1.736   8.951   4.175  1.00  0.00    -0.271 OA
ATOM      6  N   UNK A   1       1.121   6.783   3.904  1.00  0.00    -0.236 N 
ATOM      7  C   UNK A   1       0.809   5.672   2.919  1.00  0.00    +0.143 C 
ATOM      8  C   UNK A   1       1.609   4.396   3.326  1.00  0.00    +0.025 C 
ATOM      9  S   UNK A   1       3.404   4.456   2.797  1.00  0.00    -0.154 S 
ATOM     10  C   UNK A   1      -0.736   5.342   2.835  1.00  0.00    +0.267 C 
ATOM     11  O   UNK A   1      -1.569   6.004   3.458  1.00  0.00    -0.270 OA
ATOM     12  N   UNK A   1      -0.968   4.392   1.899  1.00  0.00    -0.236 N 
ATOM     13  C   UNK A   1      -2.287   3.674   1.797  1.00  0.00    +0.136 C 
ATOM     14  C   UNK A   1      -3.533   4.573   1.493  1.00  0.00    -0.015 C 
ATOM     15  C   UNK A   1      -4.180   5.192   2.742  1.00  0.00    -0.060 C 
ATOM     16  C   UNK A   1      -3.297   5.656   0.432  1.00  0.00    -0.060 C 
ATOM     17  C   UNK A   1      -2.239   2.596   0.589  1.00  0.00    +0.267 C 
ATOM     18  O   UNK A   1      -1.817   2.939  -0.520  1.00  0.00    -0.270 OA
ATOM     19  N   UNK A   1      -2.829   1.400   0.897  1.00  0.00    -0.236 N 
ATOM     20  C   UNK A   1      -3.142   0.510  -0.312  1.00  0.00    +0.135 C 
ATOM     21  C   UNK A   1      -2.077  -0.698  -0.465  1.00  0.00    -0.012 C 
ATOM     22  C   UNK A   1      -0.538  -0.425  -0.595  1.00  0.00    +0.031 C 
ATOM     23  C   UNK A   1       0.306  -1.474  -1.447  1.00  0.00    +0.242 C 
ATOM     24  O   UNK A   1      -0.019  -1.726  -2.612  1.00  0.00    -0.273 OA
ATOM     25  C   UNK A   1      -4.643  -0.156  -0.263  1.00  0.00    +0.266 C 
ATOM     26  O   UNK A   1      -4.767  -1.388  -0.247  1.00  0.00    -0.270 OA
ATOM     27  N   UNK A   1       1.384  -1.980  -0.790  1.00  0.00    -0.238 N 
ATOM     28  C   UNK A   1       2.614  -2.291  -1.648  1.00  0.00    +0.131 C 
ATOM     29  C   UNK A   1       3.268  -0.953  -2.040  1.00  0.00    -0.033 C 
ATOM     30  C   UNK A   1       3.679  -3.266  -0.945  1.00  0.00    +0.266 C 
ATOM     31  O   UNK A   1       3.368  -3.974   0.022  1.00  0.00    -0.270 OA
ATOM     32  N   UNK A   1      -5.698   0.714  -0.300  1.00  0.00    -0.236 N 
ATOM     33  C   UNK A   1      -7.086   0.113  -0.011  1.00  0.00    +0.138 C 
ATOM     34  C   UNK A   1      -7.683   0.542   1.372  1.00  0.00    +0.023 C 
ATOM     35  C   UNK A   1      -6.722   0.677   2.511  1.00  0.00    +0.061 C 
ATOM     36  C   UNK A   1      -5.570  -0.048   2.738  1.00  0.00    +0.024 C 
ATOM     37  N   UNK A   1      -4.714   0.924   3.213  1.00  0.00    -0.351 N 
ATOM     38  C   UNK A   1      -5.512   1.927   3.707  1.00  0.00    +0.092 C 
ATOM     39  N   UNK A   1      -6.782   1.733   3.411  1.00  0.00    -0.242 N 
ATOM     40  C   UNK A   1      -8.116   0.606  -1.082  1.00  0.00    +0.248 C 
ATOM     41  O   UNK A   1      -7.958   1.662  -1.721  1.00  0.00    -0.272 OA
ATOM     42  N   UNK A   1       4.872  -3.411  -1.597  1.00  0.00    -0.235 N 
ATOM     43  C   UNK A   1       6.066  -2.629  -1.024  1.00  0.00    +0.143 C 
ATOM     44  C   UNK A   1       6.130  -2.657   0.525  1.00  0.00    +0.026 C 
ATOM     45  S   UNK A   1       7.015  -1.332   1.497  1.00  0.00    -0.142 S 
ATOM     46  C   UNK A   1       7.451  -2.988  -1.800  1.00  0.00    +0.267 C 
ATOM     47  O   UNK A   1       7.504  -2.888  -3.033  1.00  0.00    -0.270 OA
ATOM     48  N   UNK A   1      -9.298  -0.113  -1.332  1.00  0.00    -0.329 N 
ATOM     49  C   UNK A   1      -9.975   0.145  -2.584  1.00  0.00    +0.021 C 
ATOM     50  C   UNK A   1     -10.292  -1.229  -3.169  1.00  0.00    -0.033 C 
ATOM     51  C   UNK A   1      -9.817  -2.234  -2.112  1.00  0.00    -0.022 C 
ATOM     52  C   UNK A   1      -9.771  -1.414  -0.819  1.00  0.00    +0.113 C 
ATOM     53  C   UNK A   1     -11.168  -1.335  -0.042  1.00  0.00    +0.264 C 
ATOM     54  O   UNK A   1     -11.205  -0.844   1.088  1.00  0.00    -0.271 OA
ATOM     55  N   UNK A   1       8.519  -3.301  -1.003  1.00  0.00    -0.236 N 
ATOM     56  C   UNK A   1       9.885  -2.890  -1.548  1.00  0.00    +0.135 C 
ATOM     57  C   UNK A   1      10.066  -1.345  -1.396  1.00  0.00    -0.014 C 
ATOM     58  C   UNK A   1      10.130  -0.854   0.064  1.00  0.00    -0.022 C 
ATOM     59  S   UNK A   1       9.066   0.554   0.385  1.00  0.00    -0.241 S 
ATOM     60  C   UNK A   1       9.328   1.033   2.064  1.00  0.00    -0.036 C 
ATOM     61  C   UNK A   1      11.154  -3.579  -0.872  1.00  0.00    +0.266 C 
ATOM     62  O   UNK A   1      11.223  -3.765   0.348  1.00  0.00    -0.270 OA
ATOM     63  N   UNK A   1     -12.248  -1.761  -0.749  1.00  0.00    -0.236 N 
ATOM     64  C   UNK A   1     -13.239  -2.607  -0.013  1.00  0.00    +0.138 C 
ATOM     65  C   UNK A   1     -13.894  -1.992   1.251  1.00  0.00    +0.004 C 
ATOM     66  C   UNK A   1     -14.875  -0.848   1.073  1.00  0.00    -0.045 C 
ATOM     67  C   UNK A   1     -14.409   0.459   0.896  1.00  0.00    -0.055 C 
ATOM     68  C   UNK A   1     -15.301   1.517   0.747  1.00  0.00    -0.020 C 
ATOM     69  C   UNK A   1     -16.674   1.273   0.777  1.00  0.00    +0.115 C 
ATOM     70  O   UNK A   1     -17.567   2.293   0.589  1.00  0.00    -0.508 OA
ATOM     71  C   UNK A   1     -17.158  -0.020   0.947  1.00  0.00    -0.020 C 
ATOM     72  C   UNK A   1     -16.260  -1.079   1.087  1.00  0.00    -0.055 C 
ATOM     73  C   UNK A   1     -14.375  -3.249  -0.860  1.00  0.00    +0.267 C 
ATOM     74  O   UNK A   1     -14.963  -4.254  -0.444  1.00  0.00    -0.270 OA
ATOM     75  N   UNK A   1      12.179  -3.806  -1.754  1.00  0.00    -0.236 N 
ATOM     76  C   UNK A   1      13.531  -3.939  -1.105  1.00  0.00    +0.138 C 
ATOM     77  C   UNK A   1      13.692  -5.297  -0.355  1.00  0.00    +0.004 C 
ATOM     78  C   UNK A   1      14.682  -5.197   0.803  1.00  0.00    -0.045 C 
ATOM     79  C   UNK A   1      14.323  -4.480   1.955  1.00  0.00    -0.055 C 
ATOM     80  C   UNK A   1      15.253  -4.271   2.974  1.00  0.00    -0.020 C 
ATOM     81  C   UNK A   1      16.541  -4.788   2.841  1.00  0.00    +0.115 C 
ATOM     82  O   UNK A   1      17.485  -4.520   3.798  1.00  0.00    -0.508 OA
ATOM     83  C   UNK A   1      16.905  -5.538   1.724  1.00  0.00    -0.020 C 
ATOM     84  C   UNK A   1      15.978  -5.721   0.698  1.00  0.00    -0.055 C 
ATOM     85  C   UNK A   1      14.728  -3.851  -2.124  1.00  0.00    +0.266 C 
ATOM     86  O   UNK A   1      15.009  -4.749  -2.921  1.00  0.00    -0.270 OA
ATOM     87  N   UNK A   1     -14.676  -2.598  -2.003  1.00  0.00    -0.233 N 
ATOM     88  C   UNK A   1     -15.810  -3.163  -2.772  1.00  0.00    +0.159 C 
ATOM     89  C   UNK A   1     -16.390  -2.095  -3.714  1.00  0.00    +0.024 C 
ATOM     90  S   UNK A   1     -17.275  -0.772  -2.819  1.00  0.00    -0.176 S 
ATOM     91  C   UNK A   1     -15.311  -4.281  -3.674  1.00  0.00    +0.329 C 
ATOM     92  O   UNK A   1     -16.044  -5.016  -4.330  1.00  0.00    -0.250 OA
ATOM     93  O   UNK A   1     -13.958  -4.322  -3.757  1.00  0.00    -0.480 OA
ATOM     94  N   UNK A   1      15.471  -2.748  -1.902  1.00  0.00    -0.238 N 
ATOM     95  C   UNK A   1      16.804  -2.760  -2.531  1.00  0.00    +0.140 C 
ATOM     96  C   UNK A   1      17.662  -1.809  -1.704  1.00  0.00    +0.325 C 
ATOM     97  O   UNK A   1      18.814  -1.470  -1.955  1.00  0.00    -0.250 OA
ATOM     98  O   UNK A   1      17.017  -1.382  -0.585  1.00  0.00    -0.480 OA
ATOM     99  C   UNK A   1       5.477   2.998  -1.129  1.00  0.00    -0.059 C 
ATOM    100  C   UNK A   1       4.642   3.328  -0.066  1.00  0.00    -0.058 C 
ATOM    101  C   UNK A   1       4.657   2.571   1.110  1.00  0.00    -0.038 C 
ATOM    102  C   UNK A   1       3.566   2.742   2.153  1.00  0.00    +0.019 C 
ATOM    103  C   UNK A   1       5.590   1.516   1.209  1.00  0.00    -0.053 C 
ATOM    104  C   UNK A   1       6.451   1.151   0.142  1.00  0.00    -0.023 C 
ATOM    105  C   UNK A   1       7.378  -0.074   0.220  1.00  0.00    +0.058 C 
ATOM    106  C   UNK A   1       6.351   1.899  -1.059  1.00  0.00    -0.046 C 
ATOM    107  C   UNK A   1       7.050   1.478  -2.328  1.00  0.00    -0.039 C 
ATOM    108  H   UNK A   1      -0.230   7.749   1.822  1.00  0.00    +0.060 HD
ATOM    109  H   UNK A   1       2.411   9.276   1.335  1.00  0.00    +0.025 HD
ATOM    110  H   UNK A   1       2.203   7.570   0.969  1.00  0.00    +0.025 HD
ATOM    111  H   UNK A   1       1.244   8.763   0.094  1.00  0.00    +0.025 HD
ATOM    112  H   UNK A   1       1.118   5.921   1.895  1.00  0.00    +0.067 HD
ATOM    113  H   UNK A   1       1.593   4.264   4.413  1.00  0.00    +0.041 HD
ATOM    114  H   UNK A   1       1.161   3.497   2.896  1.00  0.00    +0.041 HD
ATOM    115  H   UNK A   1      -2.466   3.108   2.720  1.00  0.00    +0.066 HD
ATOM    116  H   UNK A   1      -4.303   3.905   1.083  1.00  0.00    +0.032 HD
ATOM    117  H   UNK A   1      -3.839   4.717   3.662  1.00  0.00    +0.023 HD
ATOM    118  H   UNK A   1      -3.975   6.265   2.824  1.00  0.00    +0.023 HD
ATOM    119  H   UNK A   1      -5.271   5.078   2.695  1.00  0.00    +0.023 HD
ATOM    120  H   UNK A   1      -2.588   6.416   0.772  1.00  0.00    +0.023 HD
ATOM    121  H   UNK A   1      -4.251   6.146   0.187  1.00  0.00    +0.023 HD
ATOM    122  H   UNK A   1      -2.919   5.232  -0.501  1.00  0.00    +0.023 HD
ATOM    123  H   UNK A   1      -3.119   1.064  -1.264  1.00  0.00    +0.066 HD
ATOM    124  H   UNK A   1      -2.206  -1.375   0.395  1.00  0.00    +0.030 HD
ATOM    125  H   UNK A   1      -2.382  -1.270  -1.350  1.00  0.00    +0.030 HD
ATOM    126  H   UNK A   1      -0.388   0.540  -1.096  1.00  0.00    +0.037 HD
ATOM    127  H   UNK A   1      -0.107  -0.343   0.409  1.00  0.00    +0.037 HD
ATOM    128  H   UNK A   1       2.312  -2.819  -2.564  1.00  0.00    +0.065 HD
ATOM    129  H   UNK A   1       4.100  -1.091  -2.733  1.00  0.00    +0.026 HD
ATOM    130  H   UNK A   1       2.552  -0.286  -2.534  1.00  0.00    +0.026 HD
ATOM    131  H   UNK A   1       3.651  -0.433  -1.153  1.00  0.00    +0.026 HD
ATOM    132  H   UNK A   1      -7.065  -0.982  -0.062  1.00  0.00    +0.066 HD
ATOM    133  H   UNK A   1      -8.456  -0.185   1.661  1.00  0.00    +0.036 HD
ATOM    134  H   UNK A   1      -8.203   1.502   1.261  1.00  0.00    +0.036 HD
ATOM    135  H   UNK A   1      -5.153  -0.896   2.202  1.00  0.00    +0.084 HD
ATOM    136  H   UNK A   1      -3.760   1.046   2.868  1.00  0.00    +0.167 HD
ATOM    137  H   UNK A   1      -5.080   2.787   4.192  1.00  0.00    +0.104 HD
ATOM    138  H   UNK A   1       5.867  -1.594  -1.317  1.00  0.00    +0.067 HD
ATOM    139  H   UNK A   1       5.124  -2.579   0.946  1.00  0.00    +0.041 HD
ATOM    140  H   UNK A   1       6.518  -3.622   0.877  1.00  0.00    +0.041 HD
ATOM    141  H   UNK A   1      -9.377   0.728  -3.285  1.00  0.00    +0.049 HD
ATOM    142  H   UNK A   1     -10.888   0.704  -2.368  1.00  0.00    +0.049 HD
ATOM    143  H   UNK A   1      -9.762  -1.396  -4.111  1.00  0.00    +0.029 HD
ATOM    144  H   UNK A   1     -11.360  -1.320  -3.381  1.00  0.00    +0.029 HD
ATOM    145  H   UNK A   1      -8.805  -2.573  -2.357  1.00  0.00    +0.029 HD
ATOM    146  H   UNK A   1     -10.450  -3.123  -2.064  1.00  0.00    +0.029 HD
ATOM    147  H   UNK A   1      -9.053  -1.852  -0.118  1.00  0.00    +0.064 HD
ATOM    148  H   UNK A   1       9.943  -3.136  -2.619  1.00  0.00    +0.066 HD
ATOM    149  H   UNK A   1       9.275  -0.835  -1.951  1.00  0.00    +0.030 HD
ATOM    150  H   UNK A   1      10.995  -1.050  -1.896  1.00  0.00    +0.030 HD
ATOM    151  H   UNK A   1       9.847  -1.630   0.784  1.00  0.00    +0.036 HD
ATOM    152  H   UNK A   1      11.149  -0.524   0.308  1.00  0.00    +0.036 HD
ATOM    153  H   UNK A   1       9.320   1.565  -0.471  1.00  0.00    +0.084 HD
ATOM    154  H   UNK A   1       9.353   0.155   2.711  1.00  0.00    +0.033 HD
ATOM    155  H   UNK A   1      10.280   1.560   2.111  1.00  0.00    +0.033 HD
ATOM    156  H   UNK A   1       8.516   1.696   2.372  1.00  0.00    +0.033 HD
ATOM    157  H   UNK A   1     -12.683  -3.486   0.348  1.00  0.00    +0.066 HD
ATOM    158  H   UNK A   1     -14.440  -2.794   1.770  1.00  0.00    +0.034 HD
ATOM    159  H   UNK A   1     -13.140  -1.690   1.985  1.00  0.00    +0.034 HD
ATOM    160  H   UNK A   1     -13.331   0.633   0.841  1.00  0.00    +0.063 HD
ATOM    161  H   UNK A   1     -14.888   2.508   0.586  1.00  0.00    +0.066 HD
ATOM    162  H   UNK A   1     -17.040   2.998   0.174  1.00  0.00    +0.293 HD
ATOM    163  H   UNK A   1     -18.223  -0.221   0.924  1.00  0.00    +0.066 HD
ATOM    164  H   UNK A   1     -16.621  -2.105   1.153  1.00  0.00    +0.063 HD
ATOM    165  H   UNK A   1      13.655  -3.111  -0.385  1.00  0.00    +0.066 HD
ATOM    166  H   UNK A   1      14.029  -6.084  -1.043  1.00  0.00    +0.034 HD
ATOM    167  H   UNK A   1      12.751  -5.681   0.050  1.00  0.00    +0.034 HD
ATOM    168  H   UNK A   1      13.324  -4.037   2.002  1.00  0.00    +0.063 HD
ATOM    169  H   UNK A   1      14.954  -3.689   3.837  1.00  0.00    +0.066 HD
ATOM    170  H   UNK A   1      17.273  -3.603   4.063  1.00  0.00    +0.293 HD
ATOM    171  H   UNK A   1      17.919  -5.909   1.617  1.00  0.00    +0.066 HD
ATOM    172  H   UNK A   1      16.255  -6.243  -0.217  1.00  0.00    +0.063 HD
ATOM    173  H   UNK A   1     -16.608  -3.574  -2.149  1.00  0.00    +0.068 HD
ATOM    174  H   UNK A   1     -17.111  -2.535  -4.415  1.00  0.00    +0.041 HD
ATOM    175  H   UNK A   1     -15.600  -1.624  -4.316  1.00  0.00    +0.041 HD
ATOM    176  H   UNK A   1     -16.296  -0.642  -1.896  1.00  0.00    +0.102 HD
ATOM    177  H   UNK A   1     -13.665  -3.663  -3.062  1.00  0.00    +0.296 HD
ATOM    178  H   UNK A   1      16.780  -2.391  -3.559  1.00  0.00    +0.064 HD
ATOM    179  H   UNK A   1      17.301  -3.732  -2.485  1.00  0.00    +0.064 HD
ATOM    180  H   UNK A   1      16.123  -1.848  -0.685  1.00  0.00    +0.296 HD
ATOM    181  H   UNK A   1       5.385   3.564  -2.056  1.00  0.00    +0.063 HD
ATOM    182  H   UNK A   1       3.903   4.119  -0.186  1.00  0.00    +0.063 HD
ATOM    183  H   UNK A   1       2.628   2.391   1.715  1.00  0.00    +0.043 HD
ATOM    184  H   UNK A   1       3.779   2.107   3.021  1.00  0.00    +0.043 HD
ATOM    185  H   UNK A   1       5.545   0.895   2.103  1.00  0.00    +0.063 HD
ATOM    186  H   UNK A   1       7.407  -0.553  -0.751  1.00  0.00    +0.057 HD
ATOM    187  H   UNK A   1       8.134   1.455  -2.202  1.00  0.00    +0.028 HD
ATOM    188  H   UNK A   1       6.693   0.492  -2.647  1.00  0.00    +0.028 HD
ATOM    189  H   UNK A   1       6.843   2.183  -3.146  1.00  0.00    +0.028 HD
ENDROOT
TORSDOF 0