MODEL 1
REMARK VINA RESULT:      -6.0      0.000      0.000
REMARK  Generated by RDKit with Gasteiger charges
REMARK  --------------------------------------------------
ROOT
ATOM      1  N   UNK A   1      -9.894   7.966   7.456  1.00  0.00    -0.131 N 
ATOM      2  C   UNK A   1      -9.665   9.426   7.382  1.00  0.00    +0.121 C 
ATOM      3  C   UNK A   1      -9.655   9.959   8.808  1.00  0.00    -0.037 C 
ATOM      4  C   UNK A   1      -8.310   9.646   6.689  1.00  0.00    +0.262 C 
ATOM      5  O   UNK A   1      -7.251   9.285   7.214  1.00  0.00    -0.271 OA
ATOM      6  N   UNK A   1      -8.450  10.108   5.438  1.00  0.00    -0.236 N 
ATOM      7  C   UNK A   1      -8.470  11.611   5.325  1.00  0.00    +0.143 C 
ATOM      8  C   UNK A   1      -8.269  12.089   3.856  1.00  0.00    +0.025 C 
ATOM      9  S   UNK A   1      -6.548  11.912   3.164  1.00  0.00    -0.154 S 
ATOM     10  C   UNK A   1      -9.717  12.351   5.952  1.00  0.00    +0.267 C 
ATOM     11  O   UNK A   1      -9.601  12.791   7.105  1.00  0.00    -0.270 OA
ATOM     12  N   UNK A   1     -10.819  12.419   5.162  1.00  0.00    -0.236 N 
ATOM     13  C   UNK A   1     -11.630  13.695   5.288  1.00  0.00    +0.135 C 
ATOM     14  C   UNK A   1     -11.269  14.768   4.117  1.00  0.00    -0.012 C 
ATOM     15  C   UNK A   1     -11.016  14.374   2.616  1.00  0.00    +0.031 C 
ATOM     16  C   UNK A   1     -10.635  15.552   1.569  1.00  0.00    +0.242 C 
ATOM     17  O   UNK A   1     -11.449  16.455   1.346  1.00  0.00    -0.273 OA
ATOM     18  C   UNK A   1     -13.218  13.428   5.481  1.00  0.00    +0.266 C 
ATOM     19  O   UNK A   1     -13.974  13.374   4.507  1.00  0.00    -0.270 OA
ATOM     20  N   UNK A   1      -9.430  15.353   0.985  1.00  0.00    -0.238 N 
ATOM     21  C   UNK A   1      -8.915  16.179  -0.200  1.00  0.00    +0.135 C 
ATOM     22  C   UNK A   1      -9.622  15.821  -1.578  1.00  0.00    -0.012 C 
ATOM     23  C   UNK A   1      -8.981  14.610  -2.346  1.00  0.00    +0.031 C 
ATOM     24  C   UNK A   1      -9.384  14.411  -3.852  1.00  0.00    +0.242 C 
ATOM     25  O   UNK A   1     -10.446  14.838  -4.307  1.00  0.00    -0.273 OA
ATOM     26  C   UNK A   1      -8.480  17.712   0.039  1.00  0.00    +0.266 C 
ATOM     27  O   UNK A   1      -8.439  18.221   1.162  1.00  0.00    -0.270 OA
ATOM     28  N   UNK A   1     -13.609  13.306   6.795  1.00  0.00    -0.235 N 
ATOM     29  C   UNK A   1     -15.083  12.998   7.062  1.00  0.00    +0.143 C 
ATOM     30  C   UNK A   1     -15.524  11.628   6.475  1.00  0.00    +0.058 C 
ATOM     31  C   UNK A   1     -14.696  10.374   6.760  1.00  0.00    +0.220 C 
ATOM     32  O   UNK A   1     -15.140   9.235   6.549  1.00  0.00    -0.275 OA
ATOM     33  N   UNK A   1     -13.410  10.549   7.173  1.00  0.00    -0.370 N 
ATOM     34  C   UNK A   1     -15.543  12.985   8.588  1.00  0.00    +0.267 C 
ATOM     35  O   UNK A   1     -14.868  12.446   9.470  1.00  0.00    -0.270 OA
ATOM     36  N   UNK A   1      -8.464  13.676  -4.523  1.00  0.00    -0.238 N 
ATOM     37  C   UNK A   1      -8.248  14.045  -5.959  1.00  0.00    +0.134 C 
ATOM     38  C   UNK A   1      -7.171  15.150  -6.101  1.00  0.00    -0.020 C 
ATOM     39  C   UNK A   1      -7.430  16.494  -5.411  1.00  0.00    -0.033 C 
ATOM     40  C   UNK A   1      -8.682  17.210  -5.899  1.00  0.00    +0.018 C 
ATOM     41  N   UNK A   1      -8.641  18.630  -5.552  1.00  0.00    -0.357 N 
ATOM     42  C   UNK A   1      -7.925  19.590  -6.178  1.00  0.00    +0.185 C 
ATOM     43  N   UNK A   1      -7.505  19.568  -7.403  1.00  0.00    -0.270 N 
ATOM     44  N   UNK A   1      -7.719  20.678  -5.410  1.00  0.00    -0.370 N 
ATOM     45  C   UNK A   1      -7.912  12.751  -6.818  1.00  0.00    +0.266 C 
ATOM     46  O   UNK A   1      -8.787  11.909  -7.060  1.00  0.00    -0.270 OA
ATOM     47  N   UNK A   1      -8.076  18.382  -1.082  1.00  0.00    -0.235 N 
ATOM     48  C   UNK A   1      -6.575  18.635  -1.154  1.00  0.00    +0.143 C 
ATOM     49  C   UNK A   1      -5.958  17.517  -2.045  1.00  0.00    +0.027 C 
ATOM     50  S   UNK A   1      -4.143  17.191  -1.872  1.00  0.00    -0.140 S 
ATOM     51  C   UNK A   1      -6.325  20.069  -1.798  1.00  0.00    +0.267 C 
ATOM     52  O   UNK A   1      -6.584  20.331  -2.973  1.00  0.00    -0.270 OA
ATOM     53  N   UNK A   1     -16.796  13.501   8.775  1.00  0.00    -0.233 N 
ATOM     54  C   UNK A   1     -17.273  13.525  10.213  1.00  0.00    +0.160 C 
ATOM     55  C   UNK A   1     -16.880  14.875  10.881  1.00  0.00    +0.083 C 
ATOM     56  C   UNK A   1     -15.425  14.941  11.326  1.00  0.00    -0.036 C 
ATOM     57  O   UNK A   1     -17.111  15.962   9.968  1.00  0.00    -0.391 OA
ATOM     58  C   UNK A   1     -18.827  13.359  10.350  1.00  0.00    +0.269 C 
ATOM     59  O   UNK A   1     -19.650  13.609   9.468  1.00  0.00    -0.270 OA
ATOM     60  N   UNK A   1      -6.689  12.687  -7.392  1.00  0.00    -0.236 N 
ATOM     61  C   UNK A   1      -5.673  11.987  -6.554  1.00  0.00    +0.135 C 
ATOM     62  C   UNK A   1      -5.970  10.465  -6.461  1.00  0.00    -0.013 C 
ATOM     63  C   UNK A   1      -6.034   9.740  -7.817  1.00  0.00    +0.029 C 
ATOM     64  C   UNK A   1      -7.227   8.813  -7.907  1.00  0.00    +0.217 C 
ATOM     65  O   UNK A   1      -7.139   7.586  -8.011  1.00  0.00    -0.275 OA
ATOM     66  N   UNK A   1      -8.440   9.434  -7.932  1.00  0.00    -0.370 N 
ATOM     67  C   UNK A   1      -4.213  12.185  -7.058  1.00  0.00    +0.266 C 
ATOM     68  O   UNK A   1      -3.549  11.279  -7.569  1.00  0.00    -0.270 OA
ATOM     69  N   UNK A   1      -5.859  20.951  -0.890  1.00  0.00    -0.234 N 
ATOM     70  C   UNK A   1      -5.970  22.410  -1.157  1.00  0.00    +0.151 C 
ATOM     71  C   UNK A   1      -4.811  23.002  -2.024  1.00  0.00    -0.011 C 
ATOM     72  C   UNK A   1      -4.583  24.521  -1.782  1.00  0.00    +0.031 C 
ATOM     73  C   UNK A   1      -3.285  25.135  -2.350  1.00  0.00    +0.241 C 
ATOM     74  O   UNK A   1      -2.633  24.651  -3.271  1.00  0.00    -0.273 OA
ATOM     75  C   UNK A   1      -7.363  22.897  -1.565  1.00  0.00    +0.328 C 
ATOM     76  O   UNK A   1      -7.602  23.994  -2.070  1.00  0.00    -0.250 OA
ATOM     77  O   UNK A   1      -8.370  22.096  -1.141  1.00  0.00    -0.480 OA
ATOM     78  N   UNK A   1     -19.196  13.002  11.604  1.00  0.00    -0.234 N 
ATOM     79  C   UNK A   1     -20.515  12.343  11.704  1.00  0.00    +0.153 C 
ATOM     80  C   UNK A   1     -20.539  11.305  12.875  1.00  0.00    -0.011 C 
ATOM     81  C   UNK A   1     -21.811  10.435  12.766  1.00  0.00    -0.060 C 
ATOM     82  C   UNK A   1     -19.326  10.337  12.901  1.00  0.00    -0.051 C 
ATOM     83  C   UNK A   1     -18.122  10.858  13.678  1.00  0.00    -0.065 C 
ATOM     84  C   UNK A   1     -21.594  13.426  11.908  1.00  0.00    +0.328 C 
ATOM     85  O   UNK A   1     -22.404  13.482  12.833  1.00  0.00    -0.250 OA
ATOM     86  O   UNK A   1     -21.654  14.322  10.888  1.00  0.00    -0.480 OA
ATOM     87  N   UNK A   1      -3.710  13.422  -6.949  1.00  0.00    -0.233 N 
ATOM     88  C   UNK A   1      -2.829  13.726  -5.768  1.00  0.00    +0.160 C 
ATOM     89  C   UNK A   1      -3.567  13.728  -4.399  1.00  0.00    +0.028 C 
ATOM     90  S   UNK A   1      -2.725  14.839  -3.172  1.00  0.00    -0.140 S 
ATOM     91  C   UNK A   1      -1.517  12.920  -5.794  1.00  0.00    +0.329 C 
ATOM     92  O   UNK A   1      -0.684  12.812  -4.902  1.00  0.00    -0.250 OA
ATOM     93  O   UNK A   1      -1.250  12.411  -7.033  1.00  0.00    -0.480 OA
ATOM     94  N   UNK A   1      -3.010  26.330  -1.798  1.00  0.00    -0.240 N 
ATOM     95  C   UNK A   1      -1.582  26.682  -1.782  1.00  0.00    +0.140 C 
ATOM     96  C   UNK A   1      -1.081  27.366  -3.038  1.00  0.00    +0.325 C 
ATOM     97  O   UNK A   1      -0.281  28.303  -3.043  1.00  0.00    -0.250 OA
ATOM     98  O   UNK A   1      -1.507  26.802  -4.192  1.00  0.00    -0.480 OA
ATOM     99  C   UNK A   1      -2.924  14.158   1.503  1.00  0.00    -0.059 C 
ATOM    100  C   UNK A   1      -4.112  13.664   2.040  1.00  0.00    -0.058 C 
ATOM    101  C   UNK A   1      -5.283  13.643   1.281  1.00  0.00    -0.038 C 
ATOM    102  C   UNK A   1      -6.635  13.267   1.895  1.00  0.00    +0.019 C 
ATOM    103  C   UNK A   1      -5.220  14.153  -0.037  1.00  0.00    -0.053 C 
ATOM    104  C   UNK A   1      -4.027  14.686  -0.611  1.00  0.00    -0.022 C 
ATOM    105  C   UNK A   1      -4.147  15.318  -2.018  1.00  0.00    +0.076 C 
ATOM    106  C   UNK A   1      -2.865  14.700   0.204  1.00  0.00    -0.046 C 
ATOM    107  C   UNK A   1      -1.541  15.276  -0.221  1.00  0.00    -0.039 C 
ATOM    108  H   UNK A   1     -10.485   9.872   6.812  1.00  0.00    +0.060 HD
ATOM    109  H   UNK A   1      -8.917   9.441   9.434  1.00  0.00    +0.025 HD
ATOM    110  H   UNK A   1      -9.403  11.022   8.838  1.00  0.00    +0.025 HD
ATOM    111  H   UNK A   1     -10.639   9.836   9.276  1.00  0.00    +0.025 HD
ATOM    112  H   UNK A   1      -7.614  12.019   5.885  1.00  0.00    +0.067 HD
ATOM    113  H   UNK A   1      -8.497  13.159   3.812  1.00  0.00    +0.041 HD
ATOM    114  H   UNK A   1      -8.947  11.563   3.176  1.00  0.00    +0.041 HD
ATOM    115  H   UNK A   1     -11.357  14.241   6.204  1.00  0.00    +0.066 HD
ATOM    116  H   UNK A   1     -10.352  15.280   4.449  1.00  0.00    +0.030 HD
ATOM    117  H   UNK A   1     -12.054  15.536   4.128  1.00  0.00    +0.030 HD
ATOM    118  H   UNK A   1     -10.244  13.603   2.562  1.00  0.00    +0.037 HD
ATOM    119  H   UNK A   1     -11.929  13.910   2.220  1.00  0.00    +0.037 HD
ATOM    120  H   UNK A   1      -7.906  15.755  -0.327  1.00  0.00    +0.066 HD
ATOM    121  H   UNK A   1      -9.595  16.686  -2.250  1.00  0.00    +0.030 HD
ATOM    122  H   UNK A   1     -10.685  15.604  -1.411  1.00  0.00    +0.030 HD
ATOM    123  H   UNK A   1      -7.889  14.727  -2.318  1.00  0.00    +0.037 HD
ATOM    124  H   UNK A   1      -9.232  13.685  -1.812  1.00  0.00    +0.037 HD
ATOM    125  H   UNK A   1     -15.687  13.777   6.572  1.00  0.00    +0.066 HD
ATOM    126  H   UNK A   1     -16.543  11.401   6.810  1.00  0.00    +0.039 HD
ATOM    127  H   UNK A   1     -15.574  11.703   5.382  1.00  0.00    +0.039 HD
ATOM    128  H   UNK A   1     -12.732   9.932   6.759  1.00  0.00    +0.159 HD
ATOM    129  H   UNK A   1     -13.096  11.535   7.085  1.00  0.00    +0.159 HD
ATOM    130  H   UNK A   1      -9.171  14.422  -6.425  1.00  0.00    +0.066 HD
ATOM    131  H   UNK A   1      -7.005  15.351  -7.168  1.00  0.00    +0.029 HD
ATOM    132  H   UNK A   1      -6.220  14.775  -5.713  1.00  0.00    +0.029 HD
ATOM    133  H   UNK A   1      -6.548  17.125  -5.591  1.00  0.00    +0.029 HD
ATOM    134  H   UNK A   1      -7.480  16.361  -4.328  1.00  0.00    +0.029 HD
ATOM    135  H   UNK A   1      -8.807  17.088  -6.980  1.00  0.00    +0.049 HD
ATOM    136  H   UNK A   1      -9.577  16.788  -5.443  1.00  0.00    +0.049 HD
ATOM    137  H   UNK A   1      -8.665  18.728  -4.530  1.00  0.00    +0.163 HD
ATOM    138  H   UNK A   1      -7.740  18.626  -7.726  1.00  0.00    +0.191 HD
ATOM    139  H   UNK A   1      -6.917  21.201  -5.728  1.00  0.00    +0.159 HD
ATOM    140  H   UNK A   1      -7.520  20.438  -4.420  1.00  0.00    +0.159 HD
ATOM    141  H   UNK A   1      -6.113  18.603  -0.159  1.00  0.00    +0.067 HD
ATOM    142  H   UNK A   1      -6.126  17.741  -3.102  1.00  0.00    +0.041 HD
ATOM    143  H   UNK A   1      -6.462  16.572  -1.839  1.00  0.00    +0.041 HD
ATOM    144  H   UNK A   1     -16.845  12.690  10.788  1.00  0.00    +0.069 HD
ATOM    145  H   UNK A   1     -17.498  15.067  11.763  1.00  0.00    +0.063 HD
ATOM    146  H   UNK A   1     -14.740  14.970  10.472  1.00  0.00    +0.026 HD
ATOM    147  H   UNK A   1     -15.168  14.104  11.978  1.00  0.00    +0.026 HD
ATOM    148  H   UNK A   1     -15.252  15.869  11.879  1.00  0.00    +0.026 HD
ATOM    149  H   UNK A   1     -16.930  15.493   9.111  1.00  0.00    +0.211 HD
ATOM    150  H   UNK A   1      -5.694  12.359  -5.523  1.00  0.00    +0.066 HD
ATOM    151  H   UNK A   1      -5.184   9.991  -5.859  1.00  0.00    +0.030 HD
ATOM    152  H   UNK A   1      -6.893  10.315  -5.887  1.00  0.00    +0.030 HD
ATOM    153  H   UNK A   1      -5.133   9.129  -7.954  1.00  0.00    +0.037 HD
ATOM    154  H   UNK A   1      -6.081  10.428  -8.669  1.00  0.00    +0.037 HD
ATOM    155  H   UNK A   1      -9.230   8.910  -7.605  1.00  0.00    +0.159 HD
ATOM    156  H   UNK A   1      -8.450  10.419  -7.587  1.00  0.00    +0.159 HD
ATOM    157  H   UNK A   1      -5.841  22.872  -0.163  1.00  0.00    +0.068 HD
ATOM    158  H   UNK A   1      -4.995  22.825  -3.089  1.00  0.00    +0.030 HD
ATOM    159  H   UNK A   1      -3.874  22.479  -1.784  1.00  0.00    +0.030 HD
ATOM    160  H   UNK A   1      -5.410  25.093  -2.217  1.00  0.00    +0.037 HD
ATOM    161  H   UNK A   1      -4.591  24.702  -0.699  1.00  0.00    +0.037 HD
ATOM    162  H   UNK A   1      -7.961  21.226  -0.862  1.00  0.00    +0.296 HD
ATOM    163  H   UNK A   1     -20.784  11.794  10.789  1.00  0.00    +0.068 HD
ATOM    164  H   UNK A   1     -20.588  11.835  13.836  1.00  0.00    +0.033 HD
ATOM    165  H   UNK A   1     -22.725  11.037  12.767  1.00  0.00    +0.023 HD
ATOM    166  H   UNK A   1     -21.885   9.746  13.617  1.00  0.00    +0.023 HD
ATOM    167  H   UNK A   1     -21.803   9.838  11.848  1.00  0.00    +0.023 HD
ATOM    168  H   UNK A   1     -19.021  10.071  11.881  1.00  0.00    +0.027 HD
ATOM    169  H   UNK A   1     -19.621   9.397  13.388  1.00  0.00    +0.027 HD
ATOM    170  H   UNK A   1     -17.382  10.057  13.792  1.00  0.00    +0.023 HD
ATOM    171  H   UNK A   1     -18.415  11.185  14.681  1.00  0.00    +0.023 HD
ATOM    172  H   UNK A   1     -17.625  11.689  13.173  1.00  0.00    +0.023 HD
ATOM    173  H   UNK A   1     -20.847  14.137  10.314  1.00  0.00    +0.296 HD
ATOM    174  H   UNK A   1      -2.493  14.761  -5.944  1.00  0.00    +0.068 HD
ATOM    175  H   UNK A   1      -4.583  14.105  -4.518  1.00  0.00    +0.041 HD
ATOM    176  H   UNK A   1      -3.609  12.719  -3.976  1.00  0.00    +0.041 HD
ATOM    177  H   UNK A   1      -2.149  12.472  -7.468  1.00  0.00    +0.296 HD
ATOM    178  H   UNK A   1      -0.924  25.827  -1.582  1.00  0.00    +0.064 HD
ATOM    179  H   UNK A   1      -1.414  27.391  -0.961  1.00  0.00    +0.064 HD
ATOM    180  H   UNK A   1      -2.072  26.017  -3.919  1.00  0.00    +0.296 HD
ATOM    181  H   UNK A   1      -2.044  14.171   2.137  1.00  0.00    +0.063 HD
ATOM    182  H   UNK A   1      -4.134  13.338   3.076  1.00  0.00    +0.063 HD
ATOM    183  H   UNK A   1      -7.033  14.167   2.373  1.00  0.00    +0.043 HD
ATOM    184  H   UNK A   1      -7.326  12.934   1.111  1.00  0.00    +0.043 HD
ATOM    185  H   UNK A   1      -6.150  14.201  -0.610  1.00  0.00    +0.063 HD
ATOM    186  H   UNK A   1      -5.070  14.998  -2.512  1.00  0.00    +0.058 HD
ATOM    187  H   UNK A   1      -1.652  16.216  -0.762  1.00  0.00    +0.028 HD
ATOM    188  H   UNK A   1      -0.989  14.551  -0.826  1.00  0.00    +0.028 HD
ATOM    189  H   UNK A   1      -0.918  15.511   0.651  1.00  0.00    +0.028 HD
ENDROOT
TORSDOF 0
ENDMDL
