MODEL 1
REMARK VINA RESULT:      -7.8      0.000      0.000
REMARK  Generated by RDKit with Gasteiger charges
REMARK  --------------------------------------------------
ROOT
ATOM      1  N   UNK A   1     -16.138  20.117  -4.753  1.00  0.00    -0.131 N 
ATOM      2  C   UNK A   1     -14.815  20.732  -4.980  1.00  0.00    +0.121 C 
ATOM      3  C   UNK A   1     -14.645  20.853  -6.496  1.00  0.00    -0.037 C 
ATOM      4  C   UNK A   1     -14.737  22.093  -4.266  1.00  0.00    +0.262 C 
ATOM      5  O   UNK A   1     -15.710  22.606  -3.707  1.00  0.00    -0.271 OA
ATOM      6  N   UNK A   1     -13.515  22.607  -4.427  1.00  0.00    -0.236 N 
ATOM      7  C   UNK A   1     -12.813  23.098  -3.196  1.00  0.00    +0.143 C 
ATOM      8  C   UNK A   1     -11.515  22.265  -2.867  1.00  0.00    +0.025 C 
ATOM      9  S   UNK A   1     -11.816  20.626  -1.972  1.00  0.00    -0.154 S 
ATOM     10  C   UNK A   1     -12.443  24.637  -3.296  1.00  0.00    +0.267 C 
ATOM     11  O   UNK A   1     -12.883  25.391  -2.417  1.00  0.00    -0.270 OA
ATOM     12  N   UNK A   1     -11.684  24.968  -4.363  1.00  0.00    -0.236 N 
ATOM     13  C   UNK A   1     -10.984  26.298  -4.482  1.00  0.00    +0.137 C 
ATOM     14  C   UNK A   1     -11.599  27.545  -3.777  1.00  0.00    -0.013 C 
ATOM     15  C   UNK A   1     -10.797  28.835  -4.058  1.00  0.00    -0.060 C 
ATOM     16  C   UNK A   1     -13.082  27.828  -4.178  1.00  0.00    -0.051 C 
ATOM     17  C   UNK A   1     -13.335  28.103  -5.656  1.00  0.00    -0.065 C 
ATOM     18  C   UNK A   1      -9.403  26.157  -4.511  1.00  0.00    +0.267 C 
ATOM     19  O   UNK A   1      -8.873  25.815  -5.585  1.00  0.00    -0.270 OA
ATOM     20  N   UNK A   1      -8.747  26.522  -3.380  1.00  0.00    -0.236 N 
ATOM     21  C   UNK A   1      -7.296  26.083  -3.337  1.00  0.00    +0.135 C 
ATOM     22  C   UNK A   1      -6.420  26.975  -4.273  1.00  0.00    -0.013 C 
ATOM     23  C   UNK A   1      -5.475  26.155  -5.164  1.00  0.00    +0.029 C 
ATOM     24  C   UNK A   1      -3.986  26.287  -4.881  1.00  0.00    +0.217 C 
ATOM     25  O   UNK A   1      -3.150  26.420  -5.785  1.00  0.00    -0.275 OA
ATOM     26  N   UNK A   1      -3.593  26.216  -3.582  1.00  0.00    -0.370 N 
ATOM     27  C   UNK A   1      -6.633  26.090  -1.902  1.00  0.00    +0.266 C 
ATOM     28  O   UNK A   1      -6.984  26.834  -0.985  1.00  0.00    -0.270 OA
ATOM     29  N   UNK A   1      -5.536  25.291  -1.891  1.00  0.00    -0.236 N 
ATOM     30  C   UNK A   1      -5.398  24.323  -0.742  1.00  0.00    +0.131 C 
ATOM     31  C   UNK A   1      -6.573  23.328  -0.764  1.00  0.00    -0.033 C 
ATOM     32  C   UNK A   1      -4.009  23.527  -0.802  1.00  0.00    +0.266 C 
ATOM     33  O   UNK A   1      -3.126  23.829  -1.616  1.00  0.00    -0.270 OA
ATOM     34  N   UNK A   1      -3.901  22.608   0.198  1.00  0.00    -0.236 N 
ATOM     35  C   UNK A   1      -3.035  21.380  -0.078  1.00  0.00    +0.136 C 
ATOM     36  C   UNK A   1      -1.518  21.747   0.057  1.00  0.00    -0.015 C 
ATOM     37  C   UNK A   1      -0.598  20.618  -0.420  1.00  0.00    -0.060 C 
ATOM     38  C   UNK A   1      -1.110  22.191   1.467  1.00  0.00    -0.060 C 
ATOM     39  C   UNK A   1      -3.362  20.121   0.885  1.00  0.00    +0.267 C 
ATOM     40  O   UNK A   1      -3.418  20.257   2.113  1.00  0.00    -0.270 OA
ATOM     41  N   UNK A   1      -3.440  18.958   0.179  1.00  0.00    -0.235 N 
ATOM     42  C   UNK A   1      -3.596  17.625   0.920  1.00  0.00    +0.143 C 
ATOM     43  C   UNK A   1      -5.017  16.987   0.658  1.00  0.00    +0.027 C 
ATOM     44  S   UNK A   1      -6.457  17.477   1.765  1.00  0.00    -0.140 S 
ATOM     45  C   UNK A   1      -2.505  16.553   0.347  1.00  0.00    +0.267 C 
ATOM     46  O   UNK A   1      -1.997  16.660  -0.775  1.00  0.00    -0.270 OA
ATOM     47  N   UNK A   1      -2.231  15.539   1.218  1.00  0.00    -0.239 N 
ATOM     48  C   UNK A   1      -2.355  14.148   0.637  1.00  0.00    +0.124 C 
ATOM     49  C   UNK A   1      -1.398  13.021   1.184  1.00  0.00    +0.263 C 
ATOM     50  O   UNK A   1      -0.284  13.294   1.663  1.00  0.00    -0.271 OA
ATOM     51  N   UNK A   1      -1.777  11.713   1.074  1.00  0.00    -0.240 N 
ATOM     52  C   UNK A   1      -2.941  11.314   0.245  1.00  0.00    +0.124 C 
ATOM     53  C   UNK A   1      -3.298   9.787   0.383  1.00  0.00    +0.263 C 
ATOM     54  O   UNK A   1      -2.443   8.892   0.406  1.00  0.00    -0.271 OA
ATOM     55  N   UNK A   1      -4.629   9.568   0.318  1.00  0.00    -0.236 N 
ATOM     56  C   UNK A   1      -5.268   9.086   1.598  1.00  0.00    +0.135 C 
ATOM     57  C   UNK A   1      -4.968  10.062   2.781  1.00  0.00    -0.013 C 
ATOM     58  C   UNK A   1      -4.335   9.359   3.985  1.00  0.00    +0.029 C 
ATOM     59  C   UNK A   1      -2.980   8.723   3.727  1.00  0.00    +0.217 C 
ATOM     60  O   UNK A   1      -2.695   7.586   4.131  1.00  0.00    -0.275 OA
ATOM     61  N   UNK A   1      -2.008   9.548   3.231  1.00  0.00    -0.370 N 
ATOM     62  C   UNK A   1      -6.825   8.766   1.358  1.00  0.00    +0.266 C 
ATOM     63  O   UNK A   1      -7.176   7.942   0.502  1.00  0.00    -0.270 OA
ATOM     64  N   UNK A   1      -7.643   9.356   2.258  1.00  0.00    -0.236 N 
ATOM     65  C   UNK A   1      -9.031   9.677   1.786  1.00  0.00    +0.140 C 
ATOM     66  C   UNK A   1      -9.994   8.464   1.996  1.00  0.00    +0.023 C 
ATOM     67  C   UNK A   1     -10.441   8.189   3.412  1.00  0.00    +0.061 C 
ATOM     68  C   UNK A   1      -9.803   8.580   4.572  1.00  0.00    +0.024 C 
ATOM     69  N   UNK A   1     -10.782   8.568   5.515  1.00  0.00    -0.351 N 
ATOM     70  C   UNK A   1     -11.864   7.925   4.984  1.00  0.00    +0.092 C 
ATOM     71  N   UNK A   1     -11.667   7.586   3.726  1.00  0.00    -0.242 N 
ATOM     72  C   UNK A   1      -9.750  11.022   2.248  1.00  0.00    +0.267 C 
ATOM     73  O   UNK A   1     -10.742  11.389   1.601  1.00  0.00    -0.270 OA
ATOM     74  N   UNK A   1      -9.282  11.602   3.372  1.00  0.00    -0.235 N 
ATOM     75  C   UNK A   1      -9.470  13.103   3.595  1.00  0.00    +0.143 C 
ATOM     76  C   UNK A   1      -9.357  14.005   2.310  1.00  0.00    +0.027 C 
ATOM     77  S   UNK A   1      -8.958  15.841   2.609  1.00  0.00    -0.140 S 
ATOM     78  C   UNK A   1     -10.732  13.342   4.514  1.00  0.00    +0.267 C 
ATOM     79  O   UNK A   1     -11.871  13.529   4.088  1.00  0.00    -0.270 OA
ATOM     80  N   UNK A   1     -10.396  13.255   5.824  1.00  0.00    -0.238 N 
ATOM     81  C   UNK A   1     -11.511  13.258   6.784  1.00  0.00    +0.140 C 
ATOM     82  C   UNK A   1     -11.699  11.846   7.305  1.00  0.00    +0.325 C 
ATOM     83  O   UNK A   1     -12.497  11.514   8.182  1.00  0.00    -0.250 OA
ATOM     84  O   UNK A   1     -10.841  10.958   6.746  1.00  0.00    -0.480 OA
ATOM     85  C   UNK A   1      -9.599  16.531  -2.264  1.00  0.00    -0.059 C 
ATOM     86  C   UNK A   1     -10.023  17.866  -2.308  1.00  0.00    -0.058 C 
ATOM     87  C   UNK A   1      -9.765  18.735  -1.244  1.00  0.00    -0.038 C 
ATOM     88  C   UNK A   1     -10.085  20.236  -1.385  1.00  0.00    +0.019 C 
ATOM     89  C   UNK A   1      -9.067  18.200  -0.122  1.00  0.00    -0.053 C 
ATOM     90  C   UNK A   1      -8.599  16.844  -0.058  1.00  0.00    -0.022 C 
ATOM     91  C   UNK A   1      -7.799  16.278   1.157  1.00  0.00    +0.076 C 
ATOM     92  C   UNK A   1      -8.872  16.016  -1.172  1.00  0.00    -0.046 C 
ATOM     93  C   UNK A   1      -8.382  14.594  -1.257  1.00  0.00    -0.039 C 
ATOM     94  H   UNK A   1     -14.058  20.054  -4.563  1.00  0.00    +0.060 HD
ATOM     95  H   UNK A   1     -14.810  19.884  -6.990  1.00  0.00    +0.025 HD
ATOM     96  H   UNK A   1     -15.342  21.580  -6.926  1.00  0.00    +0.025 HD
ATOM     97  H   UNK A   1     -13.632  21.182  -6.757  1.00  0.00    +0.025 HD
ATOM     98  H   UNK A   1     -13.469  23.034  -2.315  1.00  0.00    +0.067 HD
ATOM     99  H   UNK A   1     -10.984  22.002  -3.784  1.00  0.00    +0.041 HD
ATOM    100  H   UNK A   1     -10.832  22.859  -2.247  1.00  0.00    +0.041 HD
ATOM    101  H   UNK A   1     -11.137  26.549  -5.546  1.00  0.00    +0.066 HD
ATOM    102  H   UNK A   1     -11.568  27.397  -2.691  1.00  0.00    +0.033 HD
ATOM    103  H   UNK A   1     -11.331  29.707  -3.677  1.00  0.00    +0.023 HD
ATOM    104  H   UNK A   1     -10.629  28.979  -5.130  1.00  0.00    +0.023 HD
ATOM    105  H   UNK A   1      -9.820  28.832  -3.567  1.00  0.00    +0.023 HD
ATOM    106  H   UNK A   1     -13.733  26.999  -3.890  1.00  0.00    +0.027 HD
ATOM    107  H   UNK A   1     -13.441  28.687  -3.598  1.00  0.00    +0.027 HD
ATOM    108  H   UNK A   1     -12.755  28.952  -6.030  1.00  0.00    +0.023 HD
ATOM    109  H   UNK A   1     -14.391  28.340  -5.813  1.00  0.00    +0.023 HD
ATOM    110  H   UNK A   1     -13.111  27.228  -6.273  1.00  0.00    +0.023 HD
ATOM    111  H   UNK A   1      -7.267  25.032  -3.663  1.00  0.00    +0.066 HD
ATOM    112  H   UNK A   1      -7.066  27.559  -4.945  1.00  0.00    +0.030 HD
ATOM    113  H   UNK A   1      -5.868  27.734  -3.698  1.00  0.00    +0.030 HD
ATOM    114  H   UNK A   1      -5.716  25.084  -5.153  1.00  0.00    +0.037 HD
ATOM    115  H   UNK A   1      -5.616  26.493  -6.200  1.00  0.00    +0.037 HD
ATOM    116  H   UNK A   1      -2.735  25.722  -3.381  1.00  0.00    +0.159 HD
ATOM    117  H   UNK A   1      -4.301  25.814  -2.921  1.00  0.00    +0.159 HD
ATOM    118  H   UNK A   1      -5.404  24.860   0.215  1.00  0.00    +0.065 HD
ATOM    119  H   UNK A   1      -6.593  22.766  -1.706  1.00  0.00    +0.026 HD
ATOM    120  H   UNK A   1      -6.520  22.592   0.048  1.00  0.00    +0.026 HD
ATOM    121  H   UNK A   1      -7.531  23.850  -0.662  1.00  0.00    +0.026 HD
ATOM    122  H   UNK A   1      -3.219  21.046  -1.112  1.00  0.00    +0.066 HD
ATOM    123  H   UNK A   1      -1.309  22.597  -0.604  1.00  0.00    +0.032 HD
ATOM    124  H   UNK A   1      -0.638  19.745   0.242  1.00  0.00    +0.023 HD
ATOM    125  H   UNK A   1      -0.876  20.289  -1.425  1.00  0.00    +0.023 HD
ATOM    126  H   UNK A   1       0.441  20.964  -0.455  1.00  0.00    +0.023 HD
ATOM    127  H   UNK A   1      -1.078  21.354   2.170  1.00  0.00    +0.023 HD
ATOM    128  H   UNK A   1      -0.107  22.640   1.451  1.00  0.00    +0.023 HD
ATOM    129  H   UNK A   1      -1.792  22.958   1.850  1.00  0.00    +0.023 HD
ATOM    130  H   UNK A   1      -3.417  17.723   1.996  1.00  0.00    +0.067 HD
ATOM    131  H   UNK A   1      -4.946  15.902   0.780  1.00  0.00    +0.041 HD
ATOM    132  H   UNK A   1      -5.317  17.164  -0.383  1.00  0.00    +0.041 HD
ATOM    133  H   UNK A   1      -2.223  14.139  -0.453  1.00  0.00    +0.062 HD
ATOM    134  H   UNK A   1      -3.390  13.840   0.833  1.00  0.00    +0.062 HD
ATOM    135  H   UNK A   1      -2.734  11.472  -0.822  1.00  0.00    +0.062 HD
ATOM    136  H   UNK A   1      -3.847  11.886   0.476  1.00  0.00    +0.062 HD
ATOM    137  H   UNK A   1      -4.854   8.098   1.852  1.00  0.00    +0.066 HD
ATOM    138  H   UNK A   1      -4.326  10.897   2.487  1.00  0.00    +0.030 HD
ATOM    139  H   UNK A   1      -5.870  10.570   3.145  1.00  0.00    +0.030 HD
ATOM    140  H   UNK A   1      -5.015   8.583   4.357  1.00  0.00    +0.037 HD
ATOM    141  H   UNK A   1      -4.205  10.077   4.803  1.00  0.00    +0.037 HD
ATOM    142  H   UNK A   1      -1.465   9.103   2.494  1.00  0.00    +0.159 HD
ATOM    143  H   UNK A   1      -2.347  10.394   2.739  1.00  0.00    +0.159 HD
ATOM    144  H   UNK A   1      -8.982   9.827   0.692  1.00  0.00    +0.066 HD
ATOM    145  H   UNK A   1     -10.911   8.654   1.417  1.00  0.00    +0.036 HD
ATOM    146  H   UNK A   1      -9.562   7.539   1.591  1.00  0.00    +0.036 HD
ATOM    147  H   UNK A   1      -8.868   9.121   4.696  1.00  0.00    +0.084 HD
ATOM    148  H   UNK A   1     -10.771   9.162   6.336  1.00  0.00    +0.167 HD
ATOM    149  H   UNK A   1     -12.786   7.809   5.521  1.00  0.00    +0.104 HD
ATOM    150  H   UNK A   1      -8.595  13.411   4.193  1.00  0.00    +0.067 HD
ATOM    151  H   UNK A   1      -8.554  13.611   1.678  1.00  0.00    +0.041 HD
ATOM    152  H   UNK A   1     -10.295  13.978   1.748  1.00  0.00    +0.041 HD
ATOM    153  H   UNK A   1     -12.469  13.606   6.395  1.00  0.00    +0.064 HD
ATOM    154  H   UNK A   1     -11.246  13.879   7.650  1.00  0.00    +0.064 HD
ATOM    155  H   UNK A   1     -10.369  11.510   6.029  1.00  0.00    +0.296 HD
ATOM    156  H   UNK A   1      -9.808  15.889  -3.114  1.00  0.00    +0.063 HD
ATOM    157  H   UNK A   1     -10.522  18.233  -3.201  1.00  0.00    +0.063 HD
ATOM    158  H   UNK A   1      -9.962  20.725  -0.412  1.00  0.00    +0.043 HD
ATOM    159  H   UNK A   1      -9.361  20.677  -2.077  1.00  0.00    +0.043 HD
ATOM    160  H   UNK A   1      -8.825  18.865   0.708  1.00  0.00    +0.063 HD
ATOM    161  H   UNK A   1      -7.263  15.363   0.912  1.00  0.00    +0.058 HD
ATOM    162  H   UNK A   1      -7.309  14.535  -1.054  1.00  0.00    +0.028 HD
ATOM    163  H   UNK A   1      -8.938  13.954  -0.569  1.00  0.00    +0.028 HD
ATOM    164  H   UNK A   1      -8.526  14.190  -2.265  1.00  0.00    +0.028 HD
ENDROOT
TORSDOF 0
ENDMDL
MODEL 2
REMARK VINA RESULT:      -6.4      1.609      1.837
REMARK  Generated by RDKit with Gasteiger charges
REMARK  --------------------------------------------------
ROOT
ATOM      1  N   UNK A   1     -16.686  20.035  -6.066  1.00  0.00    -0.131 N 
ATOM      2  C   UNK A   1     -15.459  20.842  -6.218  1.00  0.00    +0.121 C 
ATOM      3  C   UNK A   1     -15.246  21.033  -7.722  1.00  0.00    -0.037 C 
ATOM      4  C   UNK A   1     -15.609  22.176  -5.468  1.00  0.00    +0.262 C 
ATOM      5  O   UNK A   1     -16.669  22.525  -4.939  1.00  0.00    -0.271 OA
ATOM      6  N   UNK A   1     -14.470  22.866  -5.560  1.00  0.00    -0.236 N 
ATOM      7  C   UNK A   1     -13.898  23.414  -4.287  1.00  0.00    +0.143 C 
ATOM      8  C   UNK A   1     -12.506  22.768  -3.921  1.00  0.00    +0.025 C 
ATOM      9  S   UNK A   1     -12.601  21.075  -3.083  1.00  0.00    -0.154 S 
ATOM     10  C   UNK A   1     -13.753  24.993  -4.331  1.00  0.00    +0.267 C 
ATOM     11  O   UNK A   1     -14.333  25.648  -3.454  1.00  0.00    -0.270 OA
ATOM     12  N   UNK A   1     -13.007  25.465  -5.354  1.00  0.00    -0.236 N 
ATOM     13  C   UNK A   1     -12.505  26.885  -5.408  1.00  0.00    +0.137 C 
ATOM     14  C   UNK A   1     -13.323  28.007  -4.700  1.00  0.00    -0.013 C 
ATOM     15  C   UNK A   1     -12.708  29.407  -4.912  1.00  0.00    -0.060 C 
ATOM     16  C   UNK A   1     -14.814  28.084  -5.160  1.00  0.00    -0.051 C 
ATOM     17  C   UNK A   1     -15.045  28.366  -6.640  1.00  0.00    -0.065 C 
ATOM     18  C   UNK A   1     -10.920  26.975  -5.370  1.00  0.00    +0.267 C 
ATOM     19  O   UNK A   1     -10.303  26.748  -6.427  1.00  0.00    -0.270 OA
ATOM     20  N   UNK A   1     -10.371  27.395  -4.202  1.00  0.00    -0.236 N 
ATOM     21  C   UNK A   1      -8.874  27.169  -4.106  1.00  0.00    +0.135 C 
ATOM     22  C   UNK A   1      -8.100  28.208  -4.978  1.00  0.00    -0.013 C 
ATOM     23  C   UNK A   1      -7.011  27.562  -5.846  1.00  0.00    +0.029 C 
ATOM     24  C   UNK A   1      -5.570  27.899  -5.494  1.00  0.00    +0.217 C 
ATOM     25  O   UNK A   1      -4.726  28.180  -6.356  1.00  0.00    -0.275 OA
ATOM     26  N   UNK A   1      -5.224  27.845  -4.181  1.00  0.00    -0.370 N 
ATOM     27  C   UNK A   1      -8.278  27.227  -2.642  1.00  0.00    +0.266 C 
ATOM     28  O   UNK A   1      -8.771  27.883  -1.723  1.00  0.00    -0.270 OA
ATOM     29  N   UNK A   1      -7.078  26.595  -2.602  1.00  0.00    -0.236 N 
ATOM     30  C   UNK A   1      -6.846  25.621  -1.473  1.00  0.00    +0.131 C 
ATOM     31  C   UNK A   1      -7.862  24.469  -1.573  1.00  0.00    -0.033 C 
ATOM     32  C   UNK A   1      -5.355  25.038  -1.491  1.00  0.00    +0.266 C 
ATOM     33  O   UNK A   1      -4.493  25.490  -2.257  1.00  0.00    -0.270 OA
ATOM     34  N   UNK A   1      -5.154  24.112  -0.512  1.00  0.00    -0.236 N 
ATOM     35  C   UNK A   1      -4.108  23.032  -0.779  1.00  0.00    +0.136 C 
ATOM     36  C   UNK A   1      -2.668  23.610  -0.568  1.00  0.00    -0.015 C 
ATOM     37  C   UNK A   1      -1.575  22.642  -1.031  1.00  0.00    -0.060 C 
ATOM     38  C   UNK A   1      -2.386  24.064   0.870  1.00  0.00    -0.060 C 
ATOM     39  C   UNK A   1      -4.286  21.709   0.136  1.00  0.00    +0.267 C 
ATOM     40  O   UNK A   1      -4.412  21.797   1.363  1.00  0.00    -0.270 OA
ATOM     41  N   UNK A   1      -4.166  20.570  -0.602  1.00  0.00    -0.235 N 
ATOM     42  C   UNK A   1      -4.155  19.206   0.097  1.00  0.00    +0.143 C 
ATOM     43  C   UNK A   1      -5.456  18.377  -0.244  1.00  0.00    +0.027 C 
ATOM     44  S   UNK A   1      -6.996  18.619   0.809  1.00  0.00    -0.140 S 
ATOM     45  C   UNK A   1      -2.897  18.321  -0.453  1.00  0.00    +0.267 C 
ATOM     46  O   UNK A   1      -2.365  18.537  -1.548  1.00  0.00    -0.270 OA
ATOM     47  N   UNK A   1      -2.514  17.331   0.403  1.00  0.00    -0.239 N 
ATOM     48  C   UNK A   1      -2.410  15.956  -0.219  1.00  0.00    +0.124 C 
ATOM     49  C   UNK A   1      -1.321  14.962   0.342  1.00  0.00    +0.263 C 
ATOM     50  O   UNK A   1      -0.280  15.378   0.877  1.00  0.00    -0.271 OA
ATOM     51  N   UNK A   1      -1.501  13.618   0.182  1.00  0.00    -0.240 N 
ATOM     52  C   UNK A   1      -2.559  13.081  -0.707  1.00  0.00    +0.124 C 
ATOM     53  C   UNK A   1      -2.695  11.514  -0.625  1.00  0.00    +0.263 C 
ATOM     54  O   UNK A   1      -1.720  10.752  -0.586  1.00  0.00    -0.271 OA
ATOM     55  N   UNK A   1      -3.976  11.107  -0.755  1.00  0.00    -0.236 N 
ATOM     56  C   UNK A   1      -4.589  10.498   0.483  1.00  0.00    +0.135 C 
ATOM     57  C   UNK A   1      -4.484  11.469   1.702  1.00  0.00    -0.013 C 
ATOM     58  C   UNK A   1      -3.804  10.827   2.915  1.00  0.00    +0.029 C 
ATOM     59  C   UNK A   1      -2.361  10.402   2.702  1.00  0.00    +0.217 C 
ATOM     60  O   UNK A   1      -1.930   9.306   3.089  1.00  0.00    -0.275 OA
ATOM     61  N   UNK A   1      -1.501  11.374   2.271  1.00  0.00    -0.370 N 
ATOM     62  C   UNK A   1      -6.071   9.964   0.165  1.00  0.00    +0.266 C 
ATOM     63  O   UNK A   1      -6.264   9.125  -0.727  1.00  0.00    -0.270 OA
ATOM     64  N   UNK A   1      -7.003  10.400   1.042  1.00  0.00    -0.236 N 
ATOM     65  C   UNK A   1      -8.402  10.531   0.517  1.00  0.00    +0.140 C 
ATOM     66  C   UNK A   1      -9.186   9.185   0.653  1.00  0.00    +0.023 C 
ATOM     67  C   UNK A   1      -9.646   8.805   2.040  1.00  0.00    +0.061 C 
ATOM     68  C   UNK A   1      -9.119   9.247   3.237  1.00  0.00    +0.024 C 
ATOM     69  N   UNK A   1     -10.123   9.064   4.135  1.00  0.00    -0.351 N 
ATOM     70  C   UNK A   1     -11.077   8.288   3.539  1.00  0.00    +0.092 C 
ATOM     71  N   UNK A   1     -10.782   8.020   2.284  1.00  0.00    -0.242 N 
ATOM     72  C   UNK A   1      -9.328  11.743   0.981  1.00  0.00    +0.267 C 
ATOM     73  O   UNK A   1     -10.336  11.983   0.299  1.00  0.00    -0.270 OA
ATOM     74  N   UNK A   1      -8.996  12.349   2.139  1.00  0.00    -0.235 N 
ATOM     75  C   UNK A   1      -9.410  13.799   2.391  1.00  0.00    +0.143 C 
ATOM     76  C   UNK A   1      -9.378  14.748   1.135  1.00  0.00    +0.027 C 
ATOM     77  S   UNK A   1      -9.264  16.612   1.499  1.00  0.00    -0.140 S 
ATOM     78  C   UNK A   1     -10.729  13.823   3.258  1.00  0.00    +0.267 C 
ATOM     79  O   UNK A   1     -11.866  13.858   2.787  1.00  0.00    -0.270 OA
ATOM     80  N   UNK A   1     -10.438  13.745   4.580  1.00  0.00    -0.238 N 
ATOM     81  C   UNK A   1     -11.580  13.556   5.489  1.00  0.00    +0.140 C 
ATOM     82  C   UNK A   1     -11.581  12.116   5.964  1.00  0.00    +0.325 C 
ATOM     83  O   UNK A   1     -12.357  11.645   6.796  1.00  0.00    -0.250 OA
ATOM     84  O   UNK A   1     -10.580  11.379   5.422  1.00  0.00    -0.480 OA
ATOM     85  C   UNK A   1      -9.800  17.356  -3.379  1.00  0.00    -0.059 C 
ATOM     86  C   UNK A   1     -10.413  18.616  -3.408  1.00  0.00    -0.058 C 
ATOM     87  C   UNK A   1     -10.327  19.479  -2.312  1.00  0.00    -0.038 C 
ATOM     88  C   UNK A   1     -10.856  20.922  -2.429  1.00  0.00    +0.019 C 
ATOM     89  C   UNK A   1      -9.605  19.015  -1.173  1.00  0.00    -0.053 C 
ATOM     90  C   UNK A   1      -8.947  17.740  -1.123  1.00  0.00    -0.022 C 
ATOM     91  C   UNK A   1      -8.123  17.258   0.111  1.00  0.00    +0.076 C 
ATOM     92  C   UNK A   1      -9.050  16.917  -2.269  1.00  0.00    -0.046 C 
ATOM     93  C   UNK A   1      -8.356  15.584  -2.369  1.00  0.00    -0.039 C 
ATOM     94  H   UNK A   1     -14.628  20.267  -5.785  1.00  0.00    +0.060 HD
ATOM     95  H   UNK A   1     -15.249  20.067  -8.247  1.00  0.00    +0.025 HD
ATOM     96  H   UNK A   1     -16.024  21.666  -8.163  1.00  0.00    +0.025 HD
ATOM     97  H   UNK A   1     -14.283  21.514  -7.929  1.00  0.00    +0.025 HD
ATOM     98  H   UNK A   1     -14.572  23.228  -3.438  1.00  0.00    +0.067 HD
ATOM     99  H   UNK A   1     -11.906  22.614  -4.820  1.00  0.00    +0.041 HD
ATOM    100  H   UNK A   1     -11.943  23.434  -3.257  1.00  0.00    +0.041 HD
ATOM    101  H   UNK A   1     -12.649  27.144  -6.471  1.00  0.00    +0.066 HD
ATOM    102  H   UNK A   1     -13.315  27.831  -3.618  1.00  0.00    +0.033 HD
ATOM    103  H   UNK A   1     -13.378  30.181  -4.533  1.00  0.00    +0.023 HD
ATOM    104  H   UNK A   1     -12.518  29.608  -5.971  1.00  0.00    +0.023 HD
ATOM    105  H   UNK A   1     -11.761  29.530  -4.378  1.00  0.00    +0.023 HD
ATOM    106  H   UNK A   1     -15.348  27.161  -4.923  1.00  0.00    +0.027 HD
ATOM    107  H   UNK A   1     -15.318  28.864  -4.575  1.00  0.00    +0.027 HD
ATOM    108  H   UNK A   1     -14.580  29.302  -6.966  1.00  0.00    +0.023 HD
ATOM    109  H   UNK A   1     -16.116  28.454  -6.838  1.00  0.00    +0.023 HD
ATOM    110  H   UNK A   1     -14.670  27.553  -7.268  1.00  0.00    +0.023 HD
ATOM    111  H   UNK A   1      -8.679  26.145  -4.456  1.00  0.00    +0.066 HD
ATOM    112  H   UNK A   1      -8.797  28.713  -5.663  1.00  0.00    +0.030 HD
ATOM    113  H   UNK A   1      -7.689  29.021  -4.360  1.00  0.00    +0.030 HD
ATOM    114  H   UNK A   1      -7.093  26.468  -5.873  1.00  0.00    +0.037 HD
ATOM    115  H   UNK A   1      -7.157  27.909  -6.879  1.00  0.00    +0.037 HD
ATOM    116  H   UNK A   1      -4.311  27.475  -3.954  1.00  0.00    +0.159 HD
ATOM    117  H   UNK A   1      -5.891  27.324  -3.563  1.00  0.00    +0.159 HD
ATOM    118  H   UNK A   1      -6.969  26.122  -0.504  1.00  0.00    +0.065 HD
ATOM    119  H   UNK A   1      -7.762  23.939  -2.529  1.00  0.00    +0.026 HD
ATOM    120  H   UNK A   1      -7.735  23.723  -0.779  1.00  0.00    +0.026 HD
ATOM    121  H   UNK A   1      -8.890  24.843  -1.500  1.00  0.00    +0.026 HD
ATOM    122  H   UNK A   1      -4.199  22.708  -1.829  1.00  0.00    +0.066 HD
ATOM    123  H   UNK A   1      -2.559  24.502  -1.196  1.00  0.00    +0.032 HD
ATOM    124  H   UNK A   1      -1.514  21.752  -0.394  1.00  0.00    +0.023 HD
ATOM    125  H   UNK A   1      -1.760  22.308  -2.056  1.00  0.00    +0.023 HD
ATOM    126  H   UNK A   1      -0.596  23.135  -1.011  1.00  0.00    +0.023 HD
ATOM    127  H   UNK A   1      -2.261  23.218   1.552  1.00  0.00    +0.023 HD
ATOM    128  H   UNK A   1      -1.460  24.653   0.911  1.00  0.00    +0.023 HD
ATOM    129  H   UNK A   1      -3.188  24.712   1.242  1.00  0.00    +0.023 HD
ATOM    130  H   UNK A   1      -4.036  19.294   1.182  1.00  0.00    +0.067 HD
ATOM    131  H   UNK A   1      -5.232  17.311  -0.147  1.00  0.00    +0.041 HD
ATOM    132  H   UNK A   1      -5.737  18.542  -1.293  1.00  0.00    +0.041 HD
ATOM    133  H   UNK A   1      -2.234  16.000  -1.301  1.00  0.00    +0.062 HD
ATOM    134  H   UNK A   1      -3.395  15.495  -0.076  1.00  0.00    +0.062 HD
ATOM    135  H   UNK A   1      -2.334  13.301  -1.761  1.00  0.00    +0.062 HD
ATOM    136  H   UNK A   1      -3.547  13.508  -0.503  1.00  0.00    +0.062 HD
ATOM    137  H   UNK A   1      -4.047   9.573   0.729  1.00  0.00    +0.066 HD
ATOM    138  H   UNK A   1      -3.958  12.396   1.458  1.00  0.00    +0.030 HD
ATOM    139  H   UNK A   1      -5.463  11.829   2.038  1.00  0.00    +0.030 HD
ATOM    140  H   UNK A   1      -4.378   9.950   3.236  1.00  0.00    +0.037 HD
ATOM    141  H   UNK A   1      -3.813  11.530   3.756  1.00  0.00    +0.037 HD
ATOM    142  H   UNK A   1      -0.869  11.036   1.549  1.00  0.00    +0.159 HD
ATOM    143  H   UNK A   1      -1.940  12.178   1.786  1.00  0.00    +0.159 HD
ATOM    144  H   UNK A   1      -8.332  10.721  -0.569  1.00  0.00    +0.066 HD
ATOM    145  H   UNK A   1     -10.097   9.259   0.038  1.00  0.00    +0.036 HD
ATOM    146  H   UNK A   1      -8.608   8.347   0.244  1.00  0.00    +0.036 HD
ATOM    147  H   UNK A   1      -8.279   9.913   3.417  1.00  0.00    +0.084 HD
ATOM    148  H   UNK A   1     -10.232   9.626   4.970  1.00  0.00    +0.167 HD
ATOM    149  H   UNK A   1     -11.993   8.022   4.032  1.00  0.00    +0.104 HD
ATOM    150  H   UNK A   1      -8.614  14.211   3.035  1.00  0.00    +0.067 HD
ATOM    151  H   UNK A   1      -8.501  14.494   0.531  1.00  0.00    +0.041 HD
ATOM    152  H   UNK A   1     -10.279  14.603   0.531  1.00  0.00    +0.041 HD
ATOM    153  H   UNK A   1     -12.561  13.774   5.066  1.00  0.00    +0.064 HD
ATOM    154  H   UNK A   1     -11.444  14.181   6.381  1.00  0.00    +0.064 HD
ATOM    155  H   UNK A   1     -10.165  12.016   4.741  1.00  0.00    +0.296 HD
ATOM    156  H   UNK A   1      -9.879  16.717  -4.254  1.00  0.00    +0.063 HD
ATOM    157  H   UNK A   1     -10.923  18.935  -4.313  1.00  0.00    +0.063 HD
ATOM    158  H   UNK A   1     -10.846  21.392  -1.439  1.00  0.00    +0.043 HD
ATOM    159  H   UNK A   1     -10.177  21.485  -3.077  1.00  0.00    +0.043 HD
ATOM    160  H   UNK A   1      -9.496  19.683  -0.317  1.00  0.00    +0.063 HD
ATOM    161  H   UNK A   1      -7.449  16.438  -0.133  1.00  0.00    +0.058 HD
ATOM    162  H   UNK A   1      -7.294  15.675  -2.119  1.00  0.00    +0.028 HD
ATOM    163  H   UNK A   1      -8.839  14.849  -1.723  1.00  0.00    +0.028 HD
ATOM    164  H   UNK A   1      -8.398  15.196  -3.391  1.00  0.00    +0.028 HD
ENDROOT
TORSDOF 0
ENDMDL
MODEL 3
REMARK VINA RESULT:      -4.0      2.930      4.040
REMARK  Generated by RDKit with Gasteiger charges
REMARK  --------------------------------------------------
ROOT
ATOM      1  N   UNK A   1     -18.344  20.303  -4.161  1.00  0.00    -0.131 N 
ATOM      2  C   UNK A   1     -17.260  21.255  -4.473  1.00  0.00    +0.121 C 
ATOM      3  C   UNK A   1     -17.503  21.739  -5.905  1.00  0.00    -0.037 C 
ATOM      4  C   UNK A   1     -17.257  22.406  -3.453  1.00  0.00    +0.262 C 
ATOM      5  O   UNK A   1     -18.135  22.534  -2.595  1.00  0.00    -0.271 OA
ATOM      6  N   UNK A   1     -16.233  23.223  -3.710  1.00  0.00    -0.236 N 
ATOM      7  C   UNK A   1     -15.347  23.591  -2.558  1.00  0.00    +0.143 C 
ATOM      8  C   UNK A   1     -13.876  23.047  -2.728  1.00  0.00    +0.025 C 
ATOM      9  S   UNK A   1     -13.632  21.229  -2.261  1.00  0.00    -0.154 S 
ATOM     10  C   UNK A   1     -15.306  25.157  -2.315  1.00  0.00    +0.267 C 
ATOM     11  O   UNK A   1     -15.641  25.574  -1.197  1.00  0.00    -0.270 OA
ATOM     12  N   UNK A   1     -14.915  25.886  -3.383  1.00  0.00    -0.236 N 
ATOM     13  C   UNK A   1     -14.528  27.339  -3.279  1.00  0.00    +0.137 C 
ATOM     14  C   UNK A   1     -15.165  28.217  -2.160  1.00  0.00    -0.013 C 
ATOM     15  C   UNK A   1     -14.714  29.692  -2.240  1.00  0.00    -0.060 C 
ATOM     16  C   UNK A   1     -16.727  28.212  -2.168  1.00  0.00    -0.051 C 
ATOM     17  C   UNK A   1     -17.392  28.731  -3.438  1.00  0.00    -0.065 C 
ATOM     18  C   UNK A   1     -13.008  27.595  -3.659  1.00  0.00    +0.267 C 
ATOM     19  O   UNK A   1     -12.712  27.633  -4.868  1.00  0.00    -0.270 OA
ATOM     20  N   UNK A   1     -12.166  27.854  -2.625  1.00  0.00    -0.236 N 
ATOM     21  C   UNK A   1     -10.697  27.781  -2.991  1.00  0.00    +0.135 C 
ATOM     22  C   UNK A   1     -10.266  29.040  -3.808  1.00  0.00    -0.013 C 
ATOM     23  C   UNK A   1      -9.442  28.686  -5.055  1.00  0.00    +0.029 C 
ATOM     24  C   UNK A   1      -7.981  29.110  -5.049  1.00  0.00    +0.217 C 
ATOM     25  O   UNK A   1      -7.440  29.635  -6.033  1.00  0.00    -0.275 OA
ATOM     26  N   UNK A   1      -7.267  28.857  -3.921  1.00  0.00    -0.370 N 
ATOM     27  C   UNK A   1      -9.705  27.638  -1.766  1.00  0.00    +0.266 C 
ATOM     28  O   UNK A   1      -9.945  28.058  -0.634  1.00  0.00    -0.270 OA
ATOM     29  N   UNK A   1      -8.513  27.145  -2.187  1.00  0.00    -0.236 N 
ATOM     30  C   UNK A   1      -7.912  26.014  -1.390  1.00  0.00    +0.131 C 
ATOM     31  C   UNK A   1      -8.849  24.794  -1.443  1.00  0.00    -0.033 C 
ATOM     32  C   UNK A   1      -6.461  25.612  -1.934  1.00  0.00    +0.266 C 
ATOM     33  O   UNK A   1      -5.883  26.288  -2.798  1.00  0.00    -0.270 OA
ATOM     34  N   UNK A   1      -5.935  24.552  -1.259  1.00  0.00    -0.236 N 
ATOM     35  C   UNK A   1      -4.955  23.660  -2.018  1.00  0.00    +0.136 C 
ATOM     36  C   UNK A   1      -3.548  24.346  -2.095  1.00  0.00    -0.015 C 
ATOM     37  C   UNK A   1      -2.586  23.604  -3.029  1.00  0.00    -0.060 C 
ATOM     38  C   UNK A   1      -2.886  24.560  -0.728  1.00  0.00    -0.060 C 
ATOM     39  C   UNK A   1      -4.788  22.182  -1.381  1.00  0.00    +0.267 C 
ATOM     40  O   UNK A   1      -4.557  22.031  -0.176  1.00  0.00    -0.270 OA
ATOM     41  N   UNK A   1      -4.825  21.216  -2.342  1.00  0.00    -0.235 N 
ATOM     42  C   UNK A   1      -4.539  19.757  -1.968  1.00  0.00    +0.143 C 
ATOM     43  C   UNK A   1      -5.836  18.866  -2.103  1.00  0.00    +0.027 C 
ATOM     44  S   UNK A   1      -7.015  18.741  -0.642  1.00  0.00    -0.140 S 
ATOM     45  C   UNK A   1      -3.448  19.131  -3.011  1.00  0.00    +0.267 C 
ATOM     46  O   UNK A   1      -3.269  19.599  -4.141  1.00  0.00    -0.270 OA
ATOM     47  N   UNK A   1      -2.781  18.051  -2.515  1.00  0.00    -0.239 N 
ATOM     48  C   UNK A   1      -2.787  16.831  -3.410  1.00  0.00    +0.124 C 
ATOM     49  C   UNK A   1      -1.531  15.879  -3.385  1.00  0.00    +0.263 C 
ATOM     50  O   UNK A   1      -0.403  16.303  -3.081  1.00  0.00    -0.271 OA
ATOM     51  N   UNK A   1      -1.676  14.574  -3.762  1.00  0.00    -0.240 N 
ATOM     52  C   UNK A   1      -2.916  14.094  -4.419  1.00  0.00    +0.124 C 
ATOM     53  C   UNK A   1      -2.937  12.533  -4.626  1.00  0.00    +0.263 C 
ATOM     54  O   UNK A   1      -1.954  11.889  -5.013  1.00  0.00    -0.271 OA
ATOM     55  N   UNK A   1      -4.178  12.017  -4.481  1.00  0.00    -0.236 N 
ATOM     56  C   UNK A   1      -4.371  11.130  -3.275  1.00  0.00    +0.135 C 
ATOM     57  C   UNK A   1      -3.969  11.869  -1.959  1.00  0.00    -0.013 C 
ATOM     58  C   UNK A   1      -2.934  11.097  -1.137  1.00  0.00    +0.029 C 
ATOM     59  C   UNK A   1      -1.594  10.879  -1.819  1.00  0.00    +0.217 C 
ATOM     60  O   UNK A   1      -1.010   9.785  -1.798  1.00  0.00    -0.275 OA
ATOM     61  N   UNK A   1      -0.949  12.003  -2.260  1.00  0.00    -0.370 N 
ATOM     62  C   UNK A   1      -5.851  10.502  -3.278  1.00  0.00    +0.266 C 
ATOM     63  O   UNK A   1      -6.249   9.823  -4.235  1.00  0.00    -0.270 OA
ATOM     64  N   UNK A   1      -6.511  10.667  -2.109  1.00  0.00    -0.236 N 
ATOM     65  C   UNK A   1      -8.007  10.736  -2.193  1.00  0.00    +0.140 C 
ATOM     66  C   UNK A   1      -8.644   9.310  -2.128  1.00  0.00    +0.023 C 
ATOM     67  C   UNK A   1      -8.660   8.635  -0.777  1.00  0.00    +0.061 C 
ATOM     68  C   UNK A   1      -7.834   8.908   0.295  1.00  0.00    +0.024 C 
ATOM     69  N   UNK A   1      -8.523   8.455   1.375  1.00  0.00    -0.351 N 
ATOM     70  C   UNK A   1      -9.565   7.700   0.918  1.00  0.00    +0.092 C 
ATOM     71  N   UNK A   1      -9.633   7.699  -0.397  1.00  0.00    -0.242 N 
ATOM     72  C   UNK A   1      -8.822  11.734  -1.255  1.00  0.00    +0.267 C 
ATOM     73  O   UNK A   1      -9.996  11.980  -1.570  1.00  0.00    -0.270 OA
ATOM     74  N   UNK A   1      -8.202  12.152  -0.133  1.00  0.00    -0.235 N 
ATOM     75  C   UNK A   1      -8.603  13.478   0.515  1.00  0.00    +0.143 C 
ATOM     76  C   UNK A   1      -8.987  14.637  -0.479  1.00  0.00    +0.027 C 
ATOM     77  S   UNK A   1      -8.873  16.404   0.214  1.00  0.00    -0.140 S 
ATOM     78  C   UNK A   1      -9.613  13.199   1.695  1.00  0.00    +0.267 C 
ATOM     79  O   UNK A   1     -10.838  13.193   1.570  1.00  0.00    -0.270 OA
ATOM     80  N   UNK A   1      -8.947  12.915   2.842  1.00  0.00    -0.238 N 
ATOM     81  C   UNK A   1      -9.764  12.439   3.969  1.00  0.00    +0.140 C 
ATOM     82  C   UNK A   1      -9.550  10.946   4.121  1.00  0.00    +0.325 C 
ATOM     83  O   UNK A   1     -10.025  10.249   5.017  1.00  0.00    -0.250 OA
ATOM     84  O   UNK A   1      -8.711  10.434   3.186  1.00  0.00    -0.480 OA
ATOM     85  C   UNK A   1     -10.841  17.958  -4.070  1.00  0.00    -0.059 C 
ATOM     86  C   UNK A   1     -11.502  19.127  -3.671  1.00  0.00    -0.058 C 
ATOM     87  C   UNK A   1     -11.150  19.781  -2.487  1.00  0.00    -0.038 C 
ATOM     88  C   UNK A   1     -11.767  21.154  -2.156  1.00  0.00    +0.019 C 
ATOM     89  C   UNK A   1     -10.104  19.201  -1.710  1.00  0.00    -0.053 C 
ATOM     90  C   UNK A   1      -9.392  18.018  -2.105  1.00  0.00    -0.022 C 
ATOM     91  C   UNK A   1      -8.221  17.414  -1.269  1.00  0.00    +0.076 C 
ATOM     92  C   UNK A   1      -9.779  17.410  -3.322  1.00  0.00    -0.046 C 
ATOM     93  C   UNK A   1      -9.072  16.202  -3.880  1.00  0.00    -0.039 C 
ATOM     94  H   UNK A   1     -16.309  20.707  -4.412  1.00  0.00    +0.060 HD
ATOM     95  H   UNK A   1     -17.605  20.890  -6.597  1.00  0.00    +0.025 HD
ATOM     96  H   UNK A   1     -18.408  22.351  -5.978  1.00  0.00    +0.025 HD
ATOM     97  H   UNK A   1     -16.668  22.352  -6.265  1.00  0.00    +0.025 HD
ATOM     98  H   UNK A   1     -15.735  23.181  -1.614  1.00  0.00    +0.067 HD
ATOM     99  H   UNK A   1     -13.555  23.125  -3.768  1.00  0.00    +0.041 HD
ATOM    100  H   UNK A   1     -13.181  23.639  -2.120  1.00  0.00    +0.041 HD
ATOM    101  H   UNK A   1     -14.988  27.770  -4.186  1.00  0.00    +0.066 HD
ATOM    102  H   UNK A   1     -14.834  27.849  -1.181  1.00  0.00    +0.033 HD
ATOM    103  H   UNK A   1     -15.286  30.305  -1.542  1.00  0.00    +0.023 HD
ATOM    104  H   UNK A   1     -14.851  30.101  -3.246  1.00  0.00    +0.023 HD
ATOM    105  H   UNK A   1     -13.661  29.820  -1.972  1.00  0.00    +0.023 HD
ATOM    106  H   UNK A   1     -17.119  27.208  -1.989  1.00  0.00    +0.027 HD
ATOM    107  H   UNK A   1     -17.081  28.812  -1.320  1.00  0.00    +0.027 HD
ATOM    108  H   UNK A   1     -17.093  29.756  -3.679  1.00  0.00    +0.023 HD
ATOM    109  H   UNK A   1     -18.478  28.734  -3.313  1.00  0.00    +0.023 HD
ATOM    110  H   UNK A   1     -17.172  28.091  -4.298  1.00  0.00    +0.023 HD
ATOM    111  H   UNK A   1     -10.557  26.865  -3.584  1.00  0.00    +0.066 HD
ATOM    112  H   UNK A   1     -11.158  29.581  -4.158  1.00  0.00    +0.030 HD
ATOM    113  H   UNK A   1      -9.737  29.767  -3.174  1.00  0.00    +0.030 HD
ATOM    114  H   UNK A   1      -9.469  27.613  -5.283  1.00  0.00    +0.037 HD
ATOM    115  H   UNK A   1      -9.899  29.196  -5.914  1.00  0.00    +0.037 HD
ATOM    116  H   UNK A   1      -6.309  28.555  -4.034  1.00  0.00    +0.159 HD
ATOM    117  H   UNK A   1      -7.697  28.163  -3.265  1.00  0.00    +0.159 HD
ATOM    118  H   UNK A   1      -7.776  26.314  -0.343  1.00  0.00    +0.065 HD
ATOM    119  H   UNK A   1      -9.002  24.461  -2.477  1.00  0.00    +0.026 HD
ATOM    120  H   UNK A   1      -8.457  23.935  -0.884  1.00  0.00    +0.026 HD
ATOM    121  H   UNK A   1      -9.830  25.033  -1.016  1.00  0.00    +0.026 HD
ATOM    122  H   UNK A   1      -5.328  23.524  -3.046  1.00  0.00    +0.066 HD
ATOM    123  H   UNK A   1      -3.674  25.344  -2.532  1.00  0.00    +0.032 HD
ATOM    124  H   UNK A   1      -2.295  22.626  -2.630  1.00  0.00    +0.023 HD
ATOM    125  H   UNK A   1      -3.042  23.443  -4.009  1.00  0.00    +0.023 HD
ATOM    126  H   UNK A   1      -1.671  24.190  -3.176  1.00  0.00    +0.023 HD
ATOM    127  H   UNK A   1      -2.524  23.623  -0.295  1.00  0.00    +0.023 HD
ATOM    128  H   UNK A   1      -2.022  25.230  -0.822  1.00  0.00    +0.023 HD
ATOM    129  H   UNK A   1      -3.580  25.037  -0.026  1.00  0.00    +0.023 HD
ATOM    130  H   UNK A   1      -4.115  19.660  -0.963  1.00  0.00    +0.067 HD
ATOM    131  H   UNK A   1      -5.536  17.831  -2.292  1.00  0.00    +0.041 HD
ATOM    132  H   UNK A   1      -6.417  19.186  -2.978  1.00  0.00    +0.041 HD
ATOM    133  H   UNK A   1      -2.935  17.090  -4.466  1.00  0.00    +0.062 HD
ATOM    134  H   UNK A   1      -3.663  16.247  -3.101  1.00  0.00    +0.062 HD
ATOM    135  H   UNK A   1      -3.019  14.525  -5.425  1.00  0.00    +0.062 HD
ATOM    136  H   UNK A   1      -3.824  14.365  -3.868  1.00  0.00    +0.062 HD
ATOM    137  H   UNK A   1      -3.732  10.241  -3.382  1.00  0.00    +0.066 HD
ATOM    138  H   UNK A   1      -3.588  12.878  -2.141  1.00  0.00    +0.030 HD
ATOM    139  H   UNK A   1      -4.827  12.052  -1.301  1.00  0.00    +0.030 HD
ATOM    140  H   UNK A   1      -3.341  10.118  -0.859  1.00  0.00    +0.037 HD
ATOM    141  H   UNK A   1      -2.736  11.630  -0.200  1.00  0.00    +0.037 HD
ATOM    142  H   UNK A   1      -0.537  11.873  -3.181  1.00  0.00    +0.159 HD
ATOM    143  H   UNK A   1      -1.553  12.827  -2.431  1.00  0.00    +0.159 HD
ATOM    144  H   UNK A   1      -8.265  11.126  -3.194  1.00  0.00    +0.066 HD
ATOM    145  H   UNK A   1      -9.696   9.393  -2.441  1.00  0.00    +0.036 HD
ATOM    146  H   UNK A   1      -8.164   8.628  -2.842  1.00  0.00    +0.036 HD
ATOM    147  H   UNK A   1      -7.015   9.619   0.371  1.00  0.00    +0.084 HD
ATOM    148  H   UNK A   1      -8.415   8.842   2.306  1.00  0.00    +0.167 HD
ATOM    149  H   UNK A   1     -10.283   7.250   1.577  1.00  0.00    +0.104 HD
ATOM    150  H   UNK A   1      -7.678  13.851   0.987  1.00  0.00    +0.067 HD
ATOM    151  H   UNK A   1      -8.311  14.595  -1.339  1.00  0.00    +0.041 HD
ATOM    152  H   UNK A   1     -10.015  14.505  -0.830  1.00  0.00    +0.041 HD
ATOM    153  H   UNK A   1     -10.837  12.621   3.885  1.00  0.00    +0.064 HD
ATOM    154  H   UNK A   1      -9.409  12.903   4.899  1.00  0.00    +0.064 HD
ATOM    155  H   UNK A   1      -8.546  11.226   2.563  1.00  0.00    +0.296 HD
ATOM    156  H   UNK A   1     -11.135  17.483  -5.001  1.00  0.00    +0.063 HD
ATOM    157  H   UNK A   1     -12.270  19.547  -4.316  1.00  0.00    +0.063 HD
ATOM    158  H   UNK A   1     -11.495  21.434  -1.132  1.00  0.00    +0.043 HD
ATOM    159  H   UNK A   1     -11.336  21.896  -2.835  1.00  0.00    +0.043 HD
ATOM    160  H   UNK A   1      -9.788  19.709  -0.798  1.00  0.00    +0.063 HD
ATOM    161  H   UNK A   1      -7.604  16.731  -1.851  1.00  0.00    +0.058 HD
ATOM    162  H   UNK A   1      -7.990  16.362  -3.917  1.00  0.00    +0.028 HD
ATOM    163  H   UNK A   1      -9.307  15.313  -3.291  1.00  0.00    +0.028 HD
ATOM    164  H   UNK A   1      -9.388  16.004  -4.908  1.00  0.00    +0.028 HD
ENDROOT
TORSDOF 0
ENDMDL
