MODEL 1
REMARK VINA RESULT:      -5.1      0.000      0.000
REMARK  Generated by RDKit with Gasteiger charges
REMARK  --------------------------------------------------
ROOT
ATOM      1  N   UNK A   1      -3.394  10.855   2.127  1.00  0.00    -0.131 N 
ATOM      2  C   UNK A   1      -4.600  11.610   1.697  1.00  0.00    +0.121 C 
ATOM      3  C   UNK A   1      -4.113  12.921   1.097  1.00  0.00    -0.037 C 
ATOM      4  C   UNK A   1      -5.351  10.745   0.664  1.00  0.00    +0.262 C 
ATOM      5  O   UNK A   1      -4.739  10.023  -0.136  1.00  0.00    -0.271 OA
ATOM      6  N   UNK A   1      -6.683  10.768   0.815  1.00  0.00    -0.236 N 
ATOM      7  C   UNK A   1      -7.356  12.051   0.352  1.00  0.00    +0.143 C 
ATOM      8  C   UNK A   1      -8.540  11.735  -0.619  1.00  0.00    +0.025 C 
ATOM      9  S   UNK A   1     -10.033  10.795  -0.056  1.00  0.00    -0.154 S 
ATOM     10  C   UNK A   1      -7.698  13.116   1.467  1.00  0.00    +0.267 C 
ATOM     11  O   UNK A   1      -7.166  13.072   2.581  1.00  0.00    -0.270 OA
ATOM     12  N   UNK A   1      -8.453  14.105   0.951  1.00  0.00    -0.236 N 
ATOM     13  C   UNK A   1      -8.932  15.238   1.819  1.00  0.00    +0.135 C 
ATOM     14  C   UNK A   1      -8.542  16.630   1.103  1.00  0.00    -0.012 C 
ATOM     15  C   UNK A   1      -9.024  16.969  -0.357  1.00  0.00    +0.031 C 
ATOM     16  C   UNK A   1      -8.259  18.152  -1.119  1.00  0.00    +0.242 C 
ATOM     17  O   UNK A   1      -7.082  18.434  -0.865  1.00  0.00    -0.273 OA
ATOM     18  C   UNK A   1     -10.495  15.125   2.152  1.00  0.00    +0.266 C 
ATOM     19  O   UNK A   1     -11.316  15.077   1.233  1.00  0.00    -0.270 OA
ATOM     20  N   UNK A   1      -9.038  18.738  -2.067  1.00  0.00    -0.238 N 
ATOM     21  C   UNK A   1      -8.344  19.373  -3.259  1.00  0.00    +0.138 C 
ATOM     22  C   UNK A   1      -7.749  18.271  -4.176  1.00  0.00    +0.004 C 
ATOM     23  C   UNK A   1      -6.603  18.746  -5.062  1.00  0.00    -0.045 C 
ATOM     24  C   UNK A   1      -5.310  18.905  -4.541  1.00  0.00    -0.055 C 
ATOM     25  C   UNK A   1      -4.271  19.385  -5.346  1.00  0.00    -0.020 C 
ATOM     26  C   UNK A   1      -4.535  19.719  -6.670  1.00  0.00    +0.115 C 
ATOM     27  O   UNK A   1      -3.532  20.261  -7.434  1.00  0.00    -0.508 OA
ATOM     28  C   UNK A   1      -5.811  19.557  -7.208  1.00  0.00    -0.020 C 
ATOM     29  C   UNK A   1      -6.838  19.068  -6.403  1.00  0.00    -0.055 C 
ATOM     30  C   UNK A   1      -9.292  20.443  -4.017  1.00  0.00    +0.267 C 
ATOM     31  O   UNK A   1      -9.471  21.554  -3.493  1.00  0.00    -0.270 OA
ATOM     32  N   UNK A   1     -10.817  15.179   3.482  1.00  0.00    -0.236 N 
ATOM     33  C   UNK A   1     -11.756  14.047   3.979  1.00  0.00    +0.137 C 
ATOM     34  C   UNK A   1     -10.819  13.052   4.765  1.00  0.00    -0.013 C 
ATOM     35  C   UNK A   1     -10.362  13.641   6.111  1.00  0.00    -0.060 C 
ATOM     36  C   UNK A   1     -11.357  11.625   5.010  1.00  0.00    -0.051 C 
ATOM     37  C   UNK A   1     -11.786  10.884   3.754  1.00  0.00    -0.065 C 
ATOM     38  C   UNK A   1     -13.049  14.483   4.860  1.00  0.00    +0.267 C 
ATOM     39  O   UNK A   1     -13.188  15.620   5.321  1.00  0.00    -0.270 OA
ATOM     40  N   UNK A   1      -9.727  20.074  -5.256  1.00  0.00    -0.236 N 
ATOM     41  C   UNK A   1     -10.900  20.844  -5.844  1.00  0.00    +0.137 C 
ATOM     42  C   UNK A   1     -10.452  22.271  -6.321  1.00  0.00    -0.013 C 
ATOM     43  C   UNK A   1      -9.449  22.238  -7.485  1.00  0.00    -0.060 C 
ATOM     44  C   UNK A   1     -11.622  23.210  -6.693  1.00  0.00    -0.051 C 
ATOM     45  C   UNK A   1     -12.580  23.489  -5.544  1.00  0.00    -0.065 C 
ATOM     46  C   UNK A   1     -11.597  20.065  -7.062  1.00  0.00    +0.267 C 
ATOM     47  O   UNK A   1     -10.946  19.608  -8.011  1.00  0.00    -0.270 OA
ATOM     48  N   UNK A   1     -13.880  13.431   5.119  1.00  0.00    -0.235 N 
ATOM     49  C   UNK A   1     -15.383  13.653   5.083  1.00  0.00    +0.143 C 
ATOM     50  C   UNK A   1     -15.914  13.326   3.633  1.00  0.00    +0.027 C 
ATOM     51  S   UNK A   1     -15.726  14.623   2.289  1.00  0.00    -0.140 S 
ATOM     52  C   UNK A   1     -16.128  12.589   6.094  1.00  0.00    +0.267 C 
ATOM     53  O   UNK A   1     -15.873  11.378   6.033  1.00  0.00    -0.270 OA
ATOM     54  N   UNK A   1     -12.956  20.129  -7.019  1.00  0.00    -0.236 N 
ATOM     55  C   UNK A   1     -13.652  18.782  -7.044  1.00  0.00    +0.131 C 
ATOM     56  C   UNK A   1     -13.251  17.976  -5.792  1.00  0.00    -0.033 C 
ATOM     57  C   UNK A   1     -15.243  18.886  -7.131  1.00  0.00    +0.266 C 
ATOM     58  O   UNK A   1     -15.842  19.931  -7.405  1.00  0.00    -0.270 OA
ATOM     59  N   UNK A   1     -17.077  13.143   6.922  1.00  0.00    -0.236 N 
ATOM     60  C   UNK A   1     -17.617  12.204   8.023  1.00  0.00    +0.138 C 
ATOM     61  C   UNK A   1     -16.489  11.970   9.076  1.00  0.00    +0.004 C 
ATOM     62  C   UNK A   1     -16.733  10.812  10.035  1.00  0.00    -0.045 C 
ATOM     63  C   UNK A   1     -16.441   9.495   9.647  1.00  0.00    -0.055 C 
ATOM     64  C   UNK A   1     -16.801   8.420  10.466  1.00  0.00    -0.020 C 
ATOM     65  C   UNK A   1     -17.466   8.673  11.659  1.00  0.00    +0.115 C 
ATOM     66  O   UNK A   1     -18.004   7.628  12.366  1.00  0.00    -0.508 OA
ATOM     67  C   UNK A   1     -17.713   9.975  12.088  1.00  0.00    -0.020 C 
ATOM     68  C   UNK A   1     -17.347  11.041  11.272  1.00  0.00    -0.055 C 
ATOM     69  C   UNK A   1     -18.895  12.773   8.814  1.00  0.00    +0.267 C 
ATOM     70  O   UNK A   1     -18.984  13.960   9.145  1.00  0.00    -0.270 OA
ATOM     71  N   UNK A   1     -15.869  17.682  -7.030  1.00  0.00    -0.234 N 
ATOM     72  C   UNK A   1     -16.943  17.615  -5.964  1.00  0.00    +0.157 C 
ATOM     73  C   UNK A   1     -18.321  17.999  -6.558  1.00  0.00    +0.075 C 
ATOM     74  O   UNK A   1     -18.410  19.376  -6.962  1.00  0.00    -0.394 OA
ATOM     75  C   UNK A   1     -17.145  16.151  -5.398  1.00  0.00    +0.269 C 
ATOM     76  O   UNK A   1     -17.498  15.222  -6.137  1.00  0.00    -0.270 OA
ATOM     77  N   UNK A   1     -19.792  11.796   9.167  1.00  0.00    -0.236 N 
ATOM     78  C   UNK A   1     -20.927  12.259  10.024  1.00  0.00    +0.131 C 
ATOM     79  C   UNK A   1     -21.994  12.945   9.158  1.00  0.00    -0.033 C 
ATOM     80  C   UNK A   1     -21.639  11.094  10.792  1.00  0.00    +0.266 C 
ATOM     81  O   UNK A   1     -22.396  10.282  10.258  1.00  0.00    -0.271 OA
ATOM     82  N   UNK A   1     -17.043  16.088  -4.045  1.00  0.00    -0.233 N 
ATOM     83  C   UNK A   1     -16.845  14.704  -3.490  1.00  0.00    +0.160 C 
ATOM     84  C   UNK A   1     -16.069  14.625  -2.107  1.00  0.00    +0.028 C 
ATOM     85  S   UNK A   1     -17.050  14.699  -0.512  1.00  0.00    -0.140 S 
ATOM     86  C   UNK A   1     -18.124  13.899  -3.434  1.00  0.00    +0.329 C 
ATOM     87  O   UNK A   1     -18.233  12.679  -3.561  1.00  0.00    -0.250 OA
ATOM     88  O   UNK A   1     -19.251  14.583  -3.120  1.00  0.00    -0.480 OA
ATOM     89  N   UNK A   1     -21.358  11.104  12.113  1.00  0.00    -0.238 N 
ATOM     90  C   UNK A   1     -22.245  10.276  12.942  1.00  0.00    +0.140 C 
ATOM     91  C   UNK A   1     -21.683   8.888  13.155  1.00  0.00    +0.325 C 
ATOM     92  O   UNK A   1     -22.121   8.090  13.983  1.00  0.00    -0.250 OA
ATOM     93  O   UNK A   1     -20.616   8.602  12.372  1.00  0.00    -0.480 OA
ATOM     94  C   UNK A   1     -14.522  10.510  -0.838  1.00  0.00    -0.059 C 
ATOM     95  C   UNK A   1     -13.156  10.747  -0.668  1.00  0.00    -0.058 C 
ATOM     96  C   UNK A   1     -12.704  11.895  -0.017  1.00  0.00    -0.038 C 
ATOM     97  C   UNK A   1     -11.216  12.220   0.210  1.00  0.00    +0.019 C 
ATOM     98  C   UNK A   1     -13.684  12.836   0.407  1.00  0.00    -0.053 C 
ATOM     99  C   UNK A   1     -15.080  12.627   0.251  1.00  0.00    -0.022 C 
ATOM    100  C   UNK A   1     -16.111  13.639   0.770  1.00  0.00    +0.076 C 
ATOM    101  C   UNK A   1     -15.489  11.421  -0.376  1.00  0.00    -0.046 C 
ATOM    102  C   UNK A   1     -16.938  11.060  -0.547  1.00  0.00    -0.039 C 
ATOM    103  H   UNK A   1      -5.193  11.768   2.598  1.00  0.00    +0.060 HD
ATOM    104  H   UNK A   1      -3.565  12.760   0.162  1.00  0.00    +0.025 HD
ATOM    105  H   UNK A   1      -3.453  13.453   1.791  1.00  0.00    +0.025 HD
ATOM    106  H   UNK A   1      -4.945  13.593   0.872  1.00  0.00    +0.025 HD
ATOM    107  H   UNK A   1      -6.642  12.591  -0.294  1.00  0.00    +0.067 HD
ATOM    108  H   UNK A   1      -8.877  12.645  -1.128  1.00  0.00    +0.041 HD
ATOM    109  H   UNK A   1      -8.131  11.109  -1.425  1.00  0.00    +0.041 HD
ATOM    110  H   UNK A   1      -8.404  15.251   2.783  1.00  0.00    +0.066 HD
ATOM    111  H   UNK A   1      -8.889  17.443   1.755  1.00  0.00    +0.030 HD
ATOM    112  H   UNK A   1      -7.445  16.688   1.107  1.00  0.00    +0.030 HD
ATOM    113  H   UNK A   1     -10.092  17.210  -0.313  1.00  0.00    +0.037 HD
ATOM    114  H   UNK A   1      -8.903  16.082  -0.989  1.00  0.00    +0.037 HD
ATOM    115  H   UNK A   1      -7.511  19.997  -2.896  1.00  0.00    +0.066 HD
ATOM    116  H   UNK A   1      -7.347  17.444  -3.572  1.00  0.00    +0.034 HD
ATOM    117  H   UNK A   1      -8.528  17.802  -4.790  1.00  0.00    +0.034 HD
ATOM    118  H   UNK A   1      -5.153  18.673  -3.487  1.00  0.00    +0.063 HD
ATOM    119  H   UNK A   1      -3.288  19.524  -4.917  1.00  0.00    +0.066 HD
ATOM    120  H   UNK A   1      -4.012  20.662  -8.177  1.00  0.00    +0.293 HD
ATOM    121  H   UNK A   1      -6.060  19.824  -8.227  1.00  0.00    +0.066 HD
ATOM    122  H   UNK A   1      -7.855  18.976  -6.793  1.00  0.00    +0.063 HD
ATOM    123  H   UNK A   1     -12.177  13.530   3.108  1.00  0.00    +0.066 HD
ATOM    124  H   UNK A   1      -9.909  12.920   4.161  1.00  0.00    +0.033 HD
ATOM    125  H   UNK A   1      -9.912  14.632   5.990  1.00  0.00    +0.023 HD
ATOM    126  H   UNK A   1     -11.193  13.729   6.817  1.00  0.00    +0.023 HD
ATOM    127  H   UNK A   1      -9.603  12.999   6.572  1.00  0.00    +0.023 HD
ATOM    128  H   UNK A   1     -12.175  11.625   5.735  1.00  0.00    +0.027 HD
ATOM    129  H   UNK A   1     -10.557  11.036   5.479  1.00  0.00    +0.027 HD
ATOM    130  H   UNK A   1     -10.967  10.844   3.032  1.00  0.00    +0.023 HD
ATOM    131  H   UNK A   1     -12.061   9.854   4.003  1.00  0.00    +0.023 HD
ATOM    132  H   UNK A   1     -12.654  11.350   3.281  1.00  0.00    +0.023 HD
ATOM    133  H   UNK A   1     -11.659  20.947  -5.056  1.00  0.00    +0.066 HD
ATOM    134  H   UNK A   1      -9.927  22.763  -5.493  1.00  0.00    +0.033 HD
ATOM    135  H   UNK A   1      -9.921  21.930  -8.422  1.00  0.00    +0.023 HD
ATOM    136  H   UNK A   1      -9.028  23.238  -7.650  1.00  0.00    +0.023 HD
ATOM    137  H   UNK A   1      -8.611  21.567  -7.278  1.00  0.00    +0.023 HD
ATOM    138  H   UNK A   1     -11.206  24.173  -7.018  1.00  0.00    +0.027 HD
ATOM    139  H   UNK A   1     -12.180  22.818  -7.550  1.00  0.00    +0.027 HD
ATOM    140  H   UNK A   1     -13.151  22.599  -5.266  1.00  0.00    +0.023 HD
ATOM    141  H   UNK A   1     -13.299  24.261  -5.835  1.00  0.00    +0.023 HD
ATOM    142  H   UNK A   1     -12.042  23.846  -4.660  1.00  0.00    +0.023 HD
ATOM    143  H   UNK A   1     -15.678  14.666   5.383  1.00  0.00    +0.067 HD
ATOM    144  H   UNK A   1     -15.438  12.408   3.271  1.00  0.00    +0.041 HD
ATOM    145  H   UNK A   1     -16.991  13.131   3.691  1.00  0.00    +0.041 HD
ATOM    146  H   UNK A   1     -13.344  18.223  -7.939  1.00  0.00    +0.065 HD
ATOM    147  H   UNK A   1     -12.165  17.851  -5.719  1.00  0.00    +0.026 HD
ATOM    148  H   UNK A   1     -13.680  16.969  -5.803  1.00  0.00    +0.026 HD
ATOM    149  H   UNK A   1     -13.594  18.473  -4.877  1.00  0.00    +0.026 HD
ATOM    150  H   UNK A   1     -17.920  11.249   7.570  1.00  0.00    +0.066 HD
ATOM    151  H   UNK A   1     -16.334  12.887   9.664  1.00  0.00    +0.034 HD
ATOM    152  H   UNK A   1     -15.522  11.785   8.590  1.00  0.00    +0.034 HD
ATOM    153  H   UNK A   1     -16.004   9.335   8.661  1.00  0.00    +0.063 HD
ATOM    154  H   UNK A   1     -16.640   7.408  10.118  1.00  0.00    +0.066 HD
ATOM    155  H   UNK A   1     -18.955   7.895  12.419  1.00  0.00    +0.293 HD
ATOM    156  H   UNK A   1     -18.275  10.176  12.992  1.00  0.00    +0.066 HD
ATOM    157  H   UNK A   1     -17.643  12.057  11.526  1.00  0.00    +0.063 HD
ATOM    158  H   UNK A   1     -16.709  18.297  -5.133  1.00  0.00    +0.068 HD
ATOM    159  H   UNK A   1     -18.554  17.391  -7.440  1.00  0.00    +0.059 HD
ATOM    160  H   UNK A   1     -19.115  17.832  -5.823  1.00  0.00    +0.059 HD
ATOM    161  H   UNK A   1     -17.446  19.597  -7.086  1.00  0.00    +0.210 HD
ATOM    162  H   UNK A   1     -20.592  12.988  10.777  1.00  0.00    +0.065 HD
ATOM    163  H   UNK A   1     -22.363  12.274   8.372  1.00  0.00    +0.026 HD
ATOM    164  H   UNK A   1     -22.856  13.242   9.767  1.00  0.00    +0.026 HD
ATOM    165  H   UNK A   1     -21.605  13.844   8.671  1.00  0.00    +0.026 HD
ATOM    166  H   UNK A   1     -16.193  14.158  -4.193  1.00  0.00    +0.068 HD
ATOM    167  H   UNK A   1     -15.548  13.664  -2.112  1.00  0.00    +0.041 HD
ATOM    168  H   UNK A   1     -15.306  15.411  -2.060  1.00  0.00    +0.041 HD
ATOM    169  H   UNK A   1     -19.853  13.842  -2.965  1.00  0.00    +0.296 HD
ATOM    170  H   UNK A   1     -22.324  10.729  13.937  1.00  0.00    +0.064 HD
ATOM    171  H   UNK A   1     -23.265  10.179  12.553  1.00  0.00    +0.064 HD
ATOM    172  H   UNK A   1     -20.536   9.410  11.773  1.00  0.00    +0.296 HD
ATOM    173  H   UNK A   1     -14.825   9.597  -1.335  1.00  0.00    +0.063 HD
ATOM    174  H   UNK A   1     -12.448  10.019  -1.045  1.00  0.00    +0.063 HD
ATOM    175  H   UNK A   1     -11.073  12.534   1.244  1.00  0.00    +0.043 HD
ATOM    176  H   UNK A   1     -10.955  13.029  -0.478  1.00  0.00    +0.043 HD
ATOM    177  H   UNK A   1     -13.328  13.749   0.898  1.00  0.00    +0.063 HD
ATOM    178  H   UNK A   1     -16.939  13.029   1.148  1.00  0.00    +0.058 HD
ATOM    179  H   UNK A   1     -17.055  10.128  -1.112  1.00  0.00    +0.028 HD
ATOM    180  H   UNK A   1     -17.475  11.832  -1.100  1.00  0.00    +0.028 HD
ATOM    181  H   UNK A   1     -17.411  10.906   0.428  1.00  0.00    +0.028 HD
ENDROOT
TORSDOF 0
ENDMDL
MODEL 2
REMARK VINA RESULT:      -5.1      1.849      2.097
REMARK  Generated by RDKit with Gasteiger charges
REMARK  --------------------------------------------------
ROOT
ATOM      1  N   UNK A   1      -2.667   9.235   3.657  1.00  0.00    -0.131 N 
ATOM      2  C   UNK A   1      -3.782  10.002   3.044  1.00  0.00    +0.121 C 
ATOM      3  C   UNK A   1      -3.162  11.203   2.343  1.00  0.00    -0.037 C 
ATOM      4  C   UNK A   1      -4.507   9.066   2.055  1.00  0.00    +0.262 C 
ATOM      5  O   UNK A   1      -3.885   8.221   1.396  1.00  0.00    -0.271 OA
ATOM      6  N   UNK A   1      -5.842   9.185   2.089  1.00  0.00    -0.236 N 
ATOM      7  C   UNK A   1      -6.388  10.441   1.428  1.00  0.00    +0.143 C 
ATOM      8  C   UNK A   1      -7.513  10.083   0.402  1.00  0.00    +0.025 C 
ATOM      9  S   UNK A   1      -9.105   9.304   0.938  1.00  0.00    -0.154 S 
ATOM     10  C   UNK A   1      -6.744  11.649   2.383  1.00  0.00    +0.267 C 
ATOM     11  O   UNK A   1      -6.304  11.706   3.535  1.00  0.00    -0.270 OA
ATOM     12  N   UNK A   1      -7.388  12.612   1.695  1.00  0.00    -0.236 N 
ATOM     13  C   UNK A   1      -7.854  13.866   2.387  1.00  0.00    +0.135 C 
ATOM     14  C   UNK A   1      -7.316  15.138   1.554  1.00  0.00    -0.012 C 
ATOM     15  C   UNK A   1      -7.660  15.330   0.029  1.00  0.00    +0.031 C 
ATOM     16  C   UNK A   1      -6.759  16.368  -0.794  1.00  0.00    +0.242 C 
ATOM     17  O   UNK A   1      -5.589  16.609  -0.474  1.00  0.00    -0.273 OA
ATOM     18  C   UNK A   1      -9.442  13.885   2.596  1.00  0.00    +0.266 C 
ATOM     19  O   UNK A   1     -10.191  13.776   1.622  1.00  0.00    -0.270 OA
ATOM     20  N   UNK A   1      -7.421  16.882  -1.866  1.00  0.00    -0.238 N 
ATOM     21  C   UNK A   1      -6.594  17.331  -3.058  1.00  0.00    +0.138 C 
ATOM     22  C   UNK A   1      -6.006  16.095  -3.790  1.00  0.00    +0.004 C 
ATOM     23  C   UNK A   1      -4.765  16.394  -4.624  1.00  0.00    -0.045 C 
ATOM     24  C   UNK A   1      -3.509  16.538  -4.016  1.00  0.00    -0.055 C 
ATOM     25  C   UNK A   1      -2.380  16.858  -4.779  1.00  0.00    -0.020 C 
ATOM     26  C   UNK A   1      -2.518  17.049  -6.150  1.00  0.00    +0.115 C 
ATOM     27  O   UNK A   1      -1.424  17.437  -6.882  1.00  0.00    -0.508 OA
ATOM     28  C   UNK A   1      -3.756  16.899  -6.773  1.00  0.00    -0.020 C 
ATOM     29  C   UNK A   1      -4.873  16.569  -6.008  1.00  0.00    -0.055 C 
ATOM     30  C   UNK A   1      -7.406  18.357  -4.009  1.00  0.00    +0.267 C 
ATOM     31  O   UNK A   1      -7.550  19.530  -3.631  1.00  0.00    -0.270 OA
ATOM     32  N   UNK A   1      -9.862  14.114   3.879  1.00  0.00    -0.236 N 
ATOM     33  C   UNK A   1     -10.912  13.105   4.419  1.00  0.00    +0.137 C 
ATOM     34  C   UNK A   1     -10.109  12.157   5.389  1.00  0.00    -0.013 C 
ATOM     35  C   UNK A   1      -9.718  12.874   6.694  1.00  0.00    -0.060 C 
ATOM     36  C   UNK A   1     -10.759  10.802   5.747  1.00  0.00    -0.051 C 
ATOM     37  C   UNK A   1     -11.139   9.945   4.551  1.00  0.00    -0.065 C 
ATOM     38  C   UNK A   1     -12.237  13.717   5.132  1.00  0.00    +0.267 C 
ATOM     39  O   UNK A   1     -12.334  14.906   5.448  1.00  0.00    -0.270 OA
ATOM     40  N   UNK A   1      -7.768  17.870  -5.232  1.00  0.00    -0.236 N 
ATOM     41  C   UNK A   1      -8.836  18.633  -6.001  1.00  0.00    +0.137 C 
ATOM     42  C   UNK A   1      -8.257  19.965  -6.595  1.00  0.00    -0.013 C 
ATOM     43  C   UNK A   1      -7.171  19.736  -7.659  1.00  0.00    -0.060 C 
ATOM     44  C   UNK A   1      -9.328  20.920  -7.169  1.00  0.00    -0.051 C 
ATOM     45  C   UNK A   1     -10.351  21.388  -6.145  1.00  0.00    -0.065 C 
ATOM     46  C   UNK A   1      -9.488  17.757  -7.178  1.00  0.00    +0.267 C 
ATOM     47  O   UNK A   1      -8.797  17.154  -8.010  1.00  0.00    -0.270 OA
ATOM     48  N   UNK A   1     -13.155  12.753   5.436  1.00  0.00    -0.235 N 
ATOM     49  C   UNK A   1     -14.633  13.057   5.248  1.00  0.00    +0.143 C 
ATOM     50  C   UNK A   1     -15.069  12.592   3.804  1.00  0.00    +0.027 C 
ATOM     51  S   UNK A   1     -14.690  13.708   2.343  1.00  0.00    -0.140 S 
ATOM     52  C   UNK A   1     -15.524  12.164   6.305  1.00  0.00    +0.267 C 
ATOM     53  O   UNK A   1     -15.348  10.942   6.404  1.00  0.00    -0.270 OA
ATOM     54  N   UNK A   1     -10.839  17.905  -7.258  1.00  0.00    -0.236 N 
ATOM     55  C   UNK A   1     -11.621  16.608  -7.189  1.00  0.00    +0.131 C 
ATOM     56  C   UNK A   1     -11.373  15.933  -5.825  1.00  0.00    -0.033 C 
ATOM     57  C   UNK A   1     -13.189  16.792  -7.422  1.00  0.00    +0.266 C 
ATOM     58  O   UNK A   1     -13.693  17.832  -7.863  1.00  0.00    -0.270 OA
ATOM     59  N   UNK A   1     -16.494  12.867   6.982  1.00  0.00    -0.236 N 
ATOM     60  C   UNK A   1     -17.181  12.098   8.132  1.00  0.00    +0.138 C 
ATOM     61  C   UNK A   1     -16.157  11.924   9.297  1.00  0.00    +0.004 C 
ATOM     62  C   UNK A   1     -16.552  10.904  10.356  1.00  0.00    -0.045 C 
ATOM     63  C   UNK A   1     -16.321   9.536  10.146  1.00  0.00    -0.055 C 
ATOM     64  C   UNK A   1     -16.815   8.587  11.047  1.00  0.00    -0.020 C 
ATOM     65  C   UNK A   1     -17.553   9.018  12.144  1.00  0.00    +0.115 C 
ATOM     66  O   UNK A   1     -18.214   8.098  12.916  1.00  0.00    -0.508 OA
ATOM     67  C   UNK A   1     -17.743  10.374  12.399  1.00  0.00    -0.020 C 
ATOM     68  C   UNK A   1     -17.243  11.313  11.502  1.00  0.00    -0.055 C 
ATOM     69  C   UNK A   1     -18.475  12.830   8.742  1.00  0.00    +0.267 C 
ATOM     70  O   UNK A   1     -18.509  14.051   8.928  1.00  0.00    -0.270 OA
ATOM     71  N   UNK A   1     -13.901  15.647  -7.240  1.00  0.00    -0.234 N 
ATOM     72  C   UNK A   1     -15.056  15.770  -6.269  1.00  0.00    +0.157 C 
ATOM     73  C   UNK A   1     -16.355  16.161  -7.017  1.00  0.00    +0.075 C 
ATOM     74  O   UNK A   1     -16.319  17.483  -7.580  1.00  0.00    -0.394 OA
ATOM     75  C   UNK A   1     -15.401  14.397  -5.560  1.00  0.00    +0.269 C 
ATOM     76  O   UNK A   1     -15.757  13.410  -6.217  1.00  0.00    -0.270 OA
ATOM     77  N   UNK A   1     -19.461  11.956   9.125  1.00  0.00    -0.236 N 
ATOM     78  C   UNK A   1     -20.626  12.581   9.825  1.00  0.00    +0.131 C 
ATOM     79  C   UNK A   1     -21.573  13.221   8.800  1.00  0.00    -0.033 C 
ATOM     80  C   UNK A   1     -21.472  11.559  10.656  1.00  0.00    +0.266 C 
ATOM     81  O   UNK A   1     -22.239  10.736  10.155  1.00  0.00    -0.271 OA
ATOM     82  N   UNK A   1     -15.408  14.489  -4.204  1.00  0.00    -0.233 N 
ATOM     83  C   UNK A   1     -15.349  13.171  -3.483  1.00  0.00    +0.160 C 
ATOM     84  C   UNK A   1     -14.689  13.211  -2.038  1.00  0.00    +0.028 C 
ATOM     85  S   UNK A   1     -15.784  13.530  -0.551  1.00  0.00    -0.140 S 
ATOM     86  C   UNK A   1     -16.680  12.455  -3.444  1.00  0.00    +0.329 C 
ATOM     87  O   UNK A   1     -16.861  11.236  -3.441  1.00  0.00    -0.250 OA
ATOM     88  O   UNK A   1     -17.779  13.235  -3.307  1.00  0.00    -0.480 OA
ATOM     89  N   UNK A   1     -21.294  11.708  11.987  1.00  0.00    -0.238 N 
ATOM     90  C   UNK A   1     -22.297  11.037  12.826  1.00  0.00    +0.140 C 
ATOM     91  C   UNK A   1     -21.849   9.654  13.241  1.00  0.00    +0.325 C 
ATOM     92  O   UNK A   1     -22.404   8.986  14.113  1.00  0.00    -0.250 OA
ATOM     93  O   UNK A   1     -20.747   9.215  12.589  1.00  0.00    -0.480 OA
ATOM     94  C   UNK A   1     -13.529   9.191  -0.185  1.00  0.00    -0.059 C 
ATOM     95  C   UNK A   1     -12.167   9.366   0.073  1.00  0.00    -0.058 C 
ATOM     96  C   UNK A   1     -11.691  10.555   0.626  1.00  0.00    -0.038 C 
ATOM     97  C   UNK A   1     -10.206  10.817   0.940  1.00  0.00    +0.019 C 
ATOM     98  C   UNK A   1     -12.634  11.595   0.855  1.00  0.00    -0.053 C 
ATOM     99  C   UNK A   1     -14.025  11.451   0.606  1.00  0.00    -0.022 C 
ATOM    100  C   UNK A   1     -15.022  12.575   0.917  1.00  0.00    +0.076 C 
ATOM    101  C   UNK A   1     -14.465  10.205   0.087  1.00  0.00    -0.046 C 
ATOM    102  C   UNK A   1     -15.917   9.912  -0.165  1.00  0.00    -0.039 C 
ATOM    103  H   UNK A   1      -4.432  10.300   3.868  1.00  0.00    +0.060 HD
ATOM    104  H   UNK A   1      -2.555  10.901   1.482  1.00  0.00    +0.025 HD
ATOM    105  H   UNK A   1      -2.524  11.773   3.027  1.00  0.00    +0.025 HD
ATOM    106  H   UNK A   1      -3.927  11.891   1.974  1.00  0.00    +0.025 HD
ATOM    107  H   UNK A   1      -5.592  10.858   0.788  1.00  0.00    +0.067 HD
ATOM    108  H   UNK A   1      -7.747  10.944  -0.234  1.00  0.00    +0.041 HD
ATOM    109  H   UNK A   1      -7.085   9.343  -0.290  1.00  0.00    +0.041 HD
ATOM    110  H   UNK A   1      -7.403  13.962   3.384  1.00  0.00    +0.066 HD
ATOM    111  H   UNK A   1      -7.657  16.042   2.077  1.00  0.00    +0.030 HD
ATOM    112  H   UNK A   1      -6.222  15.132   1.644  1.00  0.00    +0.030 HD
ATOM    113  H   UNK A   1      -8.709  15.637  -0.046  1.00  0.00    +0.037 HD
ATOM    114  H   UNK A   1      -7.550  14.369  -0.487  1.00  0.00    +0.037 HD
ATOM    115  H   UNK A   1      -5.752  17.943  -2.698  1.00  0.00    +0.066 HD
ATOM    116  H   UNK A   1      -5.710  15.324  -3.065  1.00  0.00    +0.034 HD
ATOM    117  H   UNK A   1      -6.765  15.603  -4.412  1.00  0.00    +0.034 HD
ATOM    118  H   UNK A   1      -3.451  16.424  -2.934  1.00  0.00    +0.063 HD
ATOM    119  H   UNK A   1      -1.427  16.989  -4.287  1.00  0.00    +0.066 HD
ATOM    120  H   UNK A   1      -1.817  17.775  -7.703  1.00  0.00    +0.293 HD
ATOM    121  H   UNK A   1      -3.906  17.058  -7.833  1.00  0.00    +0.066 HD
ATOM    122  H   UNK A   1      -5.861  16.491  -6.470  1.00  0.00    +0.063 HD
ATOM    123  H   UNK A   1     -11.299  12.515   3.579  1.00  0.00    +0.066 HD
ATOM    124  H   UNK A   1      -9.166  11.902   4.883  1.00  0.00    +0.033 HD
ATOM    125  H   UNK A   1      -9.194  13.815   6.500  1.00  0.00    +0.023 HD
ATOM    126  H   UNK A   1     -10.594  13.092   7.312  1.00  0.00    +0.023 HD
ATOM    127  H   UNK A   1      -9.043  12.247   7.287  1.00  0.00    +0.023 HD
ATOM    128  H   UNK A   1     -11.630  10.936   6.395  1.00  0.00    +0.027 HD
ATOM    129  H   UNK A   1     -10.040  10.227   6.346  1.00  0.00    +0.027 HD
ATOM    130  H   UNK A   1     -10.270   9.772   3.910  1.00  0.00    +0.023 HD
ATOM    131  H   UNK A   1     -11.502   8.969   4.890  1.00  0.00    +0.023 HD
ATOM    132  H   UNK A   1     -11.934  10.401   3.956  1.00  0.00    +0.023 HD
ATOM    133  H   UNK A   1      -9.646  18.872  -5.297  1.00  0.00    +0.066 HD
ATOM    134  H   UNK A   1      -7.766  20.520  -5.787  1.00  0.00    +0.033 HD
ATOM    135  H   UNK A   1      -7.589  19.347  -8.592  1.00  0.00    +0.023 HD
ATOM    136  H   UNK A   1      -6.672  20.683  -7.899  1.00  0.00    +0.023 HD
ATOM    137  H   UNK A   1      -6.400  19.046  -7.307  1.00  0.00    +0.023 HD
ATOM    138  H   UNK A   1      -8.824  21.812  -7.565  1.00  0.00    +0.027 HD
ATOM    139  H   UNK A   1      -9.843  20.462  -8.021  1.00  0.00    +0.027 HD
ATOM    140  H   UNK A   1     -11.001  20.572  -5.818  1.00  0.00    +0.023 HD
ATOM    141  H   UNK A   1     -10.992  22.161  -6.582  1.00  0.00    +0.023 HD
ATOM    142  H   UNK A   1      -9.861  21.815  -5.264  1.00  0.00    +0.023 HD
ATOM    143  H   UNK A   1     -14.881  14.113   5.406  1.00  0.00    +0.067 HD
ATOM    144  H   UNK A   1     -14.630  11.612   3.590  1.00  0.00    +0.041 HD
ATOM    145  H   UNK A   1     -16.159  12.468   3.792  1.00  0.00    +0.041 HD
ATOM    146  H   UNK A   1     -11.283  15.930  -7.987  1.00  0.00    +0.065 HD
ATOM    147  H   UNK A   1     -10.307  15.754  -5.647  1.00  0.00    +0.026 HD
ATOM    148  H   UNK A   1     -11.867  14.959  -5.759  1.00  0.00    +0.026 HD
ATOM    149  H   UNK A   1     -11.752  16.554  -5.004  1.00  0.00    +0.026 HD
ATOM    150  H   UNK A   1     -17.512  11.115   7.765  1.00  0.00    +0.066 HD
ATOM    151  H   UNK A   1     -15.986  12.893   9.788  1.00  0.00    +0.034 HD
ATOM    152  H   UNK A   1     -15.170  11.627   8.919  1.00  0.00    +0.034 HD
ATOM    153  H   UNK A   1     -15.821   9.235   9.225  1.00  0.00    +0.063 HD
ATOM    154  H   UNK A   1     -16.697   7.534  10.831  1.00  0.00    +0.066 HD
ATOM    155  H   UNK A   1     -19.146   8.423  12.857  1.00  0.00    +0.293 HD
ATOM    156  H   UNK A   1     -18.359  10.713  13.224  1.00  0.00    +0.066 HD
ATOM    157  H   UNK A   1     -17.490  12.367  11.614  1.00  0.00    +0.063 HD
ATOM    158  H   UNK A   1     -14.843  16.530  -5.503  1.00  0.00    +0.068 HD
ATOM    159  H   UNK A   1     -16.560  15.468  -7.842  1.00  0.00    +0.059 HD
ATOM    160  H   UNK A   1     -17.213  16.128  -6.338  1.00  0.00    +0.059 HD
ATOM    161  H   UNK A   1     -15.336  17.631  -7.645  1.00  0.00    +0.210 HD
ATOM    162  H   UNK A   1     -20.301  13.373  10.517  1.00  0.00    +0.065 HD
ATOM    163  H   UNK A   1     -21.924  12.485   8.066  1.00  0.00    +0.026 HD
ATOM    164  H   UNK A   1     -22.458  13.638   9.296  1.00  0.00    +0.026 HD
ATOM    165  H   UNK A   1     -21.087  14.033   8.249  1.00  0.00    +0.026 HD
ATOM    166  H   UNK A   1     -14.683  12.509  -4.061  1.00  0.00    +0.068 HD
ATOM    167  H   UNK A   1     -14.236  12.227  -1.890  1.00  0.00    +0.041 HD
ATOM    168  H   UNK A   1     -13.882  13.951  -2.015  1.00  0.00    +0.041 HD
ATOM    169  H   UNK A   1     -18.440  12.554  -3.121  1.00  0.00    +0.296 HD
ATOM    170  H   UNK A   1     -22.423  11.609  13.753  1.00  0.00    +0.064 HD
ATOM    171  H   UNK A   1     -23.289  10.955  12.364  1.00  0.00    +0.064 HD
ATOM    172  H   UNK A   1     -20.566   9.941  11.912  1.00  0.00    +0.296 HD
ATOM    173  H   UNK A   1     -13.853   8.245  -0.600  1.00  0.00    +0.063 HD
ATOM    174  H   UNK A   1     -11.483   8.559  -0.158  1.00  0.00    +0.063 HD
ATOM    175  H   UNK A   1     -10.122  11.242   1.940  1.00  0.00    +0.043 HD
ATOM    176  H   UNK A   1      -9.838  11.523   0.190  1.00  0.00    +0.043 HD
ATOM    177  H   UNK A   1     -12.256  12.537   1.269  1.00  0.00    +0.063 HD
ATOM    178  H   UNK A   1     -15.916  12.064   1.290  1.00  0.00    +0.058 HD
ATOM    179  H   UNK A   1     -16.053   8.928  -0.629  1.00  0.00    +0.028 HD
ATOM    180  H   UNK A   1     -16.356  10.643  -0.846  1.00  0.00    +0.028 HD
ATOM    181  H   UNK A   1     -16.474   9.902   0.777  1.00  0.00    +0.028 HD
ENDROOT
TORSDOF 0
ENDMDL
