MODEL 1
REMARK VINA RESULT:      67.7      0.000      0.000
REMARK  Generated by RDKit with Gasteiger charges
REMARK  --------------------------------------------------
ROOT
ATOM      1  N   UNK A   1     -20.140   8.742   8.560  1.00  0.00    -0.131 N 
ATOM      2  C   UNK A   1     -19.313   9.539   7.616  1.00  0.00    +0.121 C 
ATOM      3  C   UNK A   1     -18.635  10.625   8.448  1.00  0.00    -0.037 C 
ATOM      4  C   UNK A   1     -18.250   8.611   6.985  1.00  0.00    +0.262 C 
ATOM      5  O   UNK A   1     -17.877   7.612   7.622  1.00  0.00    -0.271 OA
ATOM      6  N   UNK A   1     -17.704   8.969   5.809  1.00  0.00    -0.236 N 
ATOM      7  C   UNK A   1     -18.218  10.162   5.028  1.00  0.00    +0.143 C 
ATOM      8  C   UNK A   1     -17.046  10.882   4.269  1.00  0.00    +0.025 C 
ATOM      9  S   UNK A   1     -15.918  11.916   5.349  1.00  0.00    -0.154 S 
ATOM     10  C   UNK A   1     -19.424   9.723   4.080  1.00  0.00    +0.267 C 
ATOM     11  O   UNK A   1     -20.450   9.249   4.584  1.00  0.00    -0.270 OA
ATOM     12  N   UNK A   1     -19.145   9.879   2.772  1.00  0.00    -0.236 N 
ATOM     13  C   UNK A   1     -20.213  10.081   1.725  1.00  0.00    +0.137 C 
ATOM     14  C   UNK A   1     -21.385   9.045   1.810  1.00  0.00    -0.013 C 
ATOM     15  C   UNK A   1     -20.879   7.594   1.903  1.00  0.00    -0.060 C 
ATOM     16  C   UNK A   1     -22.404   9.148   0.648  1.00  0.00    -0.051 C 
ATOM     17  C   UNK A   1     -21.901   8.671  -0.710  1.00  0.00    -0.065 C 
ATOM     18  C   UNK A   1     -20.741  11.580   1.617  1.00  0.00    +0.267 C 
ATOM     19  O   UNK A   1     -21.268  12.129   2.593  1.00  0.00    -0.270 OA
ATOM     20  N   UNK A   1     -20.819  12.070   0.345  1.00  0.00    -0.236 N 
ATOM     21  C   UNK A   1     -19.611  12.849  -0.178  1.00  0.00    +0.134 C 
ATOM     22  C   UNK A   1     -18.931  11.977  -1.278  1.00  0.00    -0.019 C 
ATOM     23  C   UNK A   1     -19.541  11.961  -2.709  1.00  0.00    -0.045 C 
ATOM     24  C   UNK A   1     -18.929  10.807  -3.512  1.00  0.00    -0.063 C 
ATOM     25  C   UNK A   1     -21.065  11.883  -2.780  1.00  0.00    -0.063 C 
ATOM     26  C   UNK A   1     -19.901  14.354  -0.672  1.00  0.00    +0.266 C 
ATOM     27  O   UNK A   1     -20.904  14.976  -0.303  1.00  0.00    -0.270 OA
ATOM     28  N   UNK A   1     -18.990  14.849  -1.560  1.00  0.00    -0.239 N 
ATOM     29  C   UNK A   1     -18.008  15.856  -1.013  1.00  0.00    +0.124 C 
ATOM     30  C   UNK A   1     -17.408  16.916  -2.040  1.00  0.00    +0.263 C 
ATOM     31  O   UNK A   1     -18.149  17.535  -2.814  1.00  0.00    -0.271 OA
ATOM     32  N   UNK A   1     -16.051  17.085  -1.946  1.00  0.00    -0.236 N 
ATOM     33  C   UNK A   1     -15.590  18.487  -1.560  1.00  0.00    +0.138 C 
ATOM     34  C   UNK A   1     -15.816  18.704  -0.033  1.00  0.00    +0.004 C 
ATOM     35  C   UNK A   1     -16.667  19.925   0.293  1.00  0.00    -0.045 C 
ATOM     36  C   UNK A   1     -18.059  19.820   0.376  1.00  0.00    -0.059 C 
ATOM     37  C   UNK A   1     -18.835  20.939   0.682  1.00  0.00    -0.062 C 
ATOM     38  C   UNK A   1     -18.225  22.177   0.895  1.00  0.00    -0.062 C 
ATOM     39  C   UNK A   1     -16.839  22.296   0.791  1.00  0.00    -0.062 C 
ATOM     40  C   UNK A   1     -16.065  21.173   0.493  1.00  0.00    -0.059 C 
ATOM     41  C   UNK A   1     -14.136  19.105  -1.888  1.00  0.00    +0.267 C 
ATOM     42  O   UNK A   1     -14.104  20.300  -2.233  1.00  0.00    -0.270 OA
ATOM     43  N   UNK A   1     -13.045  18.320  -1.709  1.00  0.00    -0.235 N 
ATOM     44  C   UNK A   1     -11.844  18.919  -0.918  1.00  0.00    +0.143 C 
ATOM     45  C   UNK A   1     -11.323  17.797   0.055  1.00  0.00    +0.027 C 
ATOM     46  S   UNK A   1     -12.385  17.310   1.505  1.00  0.00    -0.140 S 
ATOM     47  C   UNK A   1     -10.504  19.378  -1.737  1.00  0.00    +0.267 C 
ATOM     48  O   UNK A   1     -10.377  19.202  -2.954  1.00  0.00    -0.270 OA
ATOM     49  N   UNK A   1      -9.590  19.994  -0.915  1.00  0.00    -0.235 N 
ATOM     50  C   UNK A   1      -8.096  20.009  -1.306  1.00  0.00    +0.143 C 
ATOM     51  C   UNK A   1      -7.438  21.448  -0.953  1.00  0.00    +0.060 C 
ATOM     52  C   UNK A   1      -5.924  21.888  -1.320  1.00  0.00    +0.244 C 
ATOM     53  O   UNK A   1      -4.959  21.159  -1.059  1.00  0.00    -0.273 OA
ATOM     54  C   UNK A   1      -7.245  18.797  -0.731  1.00  0.00    +0.267 C 
ATOM     55  O   UNK A   1      -6.324  18.334  -1.421  1.00  0.00    -0.270 OA
ATOM     56  N   UNK A   1      -5.826  23.173  -1.795  1.00  0.00    -0.238 N 
ATOM     57  C   UNK A   1      -4.504  23.546  -2.469  1.00  0.00    +0.138 C 
ATOM     58  C   UNK A   1      -4.218  22.702  -3.749  1.00  0.00    +0.006 C 
ATOM     59  C   UNK A   1      -5.380  22.436  -4.676  1.00  0.00    -0.020 C 
ATOM     60  C   UNK A   1      -6.238  21.359  -4.563  1.00  0.00    +0.005 C 
ATOM     61  N   UNK A   1      -7.275  21.529  -5.430  1.00  0.00    -0.361 N 
ATOM     62  C   UNK A   1      -7.006  22.582  -6.280  1.00  0.00    +0.046 C 
ATOM     63  C   UNK A   1      -7.725  23.080  -7.376  1.00  0.00    -0.038 C 
ATOM     64  C   UNK A   1      -7.247  24.242  -7.995  1.00  0.00    -0.060 C 
ATOM     65  C   UNK A   1      -6.103  24.888  -7.524  1.00  0.00    -0.062 C 
ATOM     66  C   UNK A   1      -5.400  24.379  -6.425  1.00  0.00    -0.053 C 
ATOM     67  C   UNK A   1      -5.843  23.196  -5.798  1.00  0.00    +0.003 C 
ATOM     68  C   UNK A   1      -4.310  25.095  -2.804  1.00  0.00    +0.267 C 
ATOM     69  O   UNK A   1      -5.243  25.868  -3.022  1.00  0.00    -0.270 OA
ATOM     70  N   UNK A   1      -7.550  18.356   0.519  1.00  0.00    -0.235 N 
ATOM     71  C   UNK A   1      -6.470  17.578   1.205  1.00  0.00    +0.143 C 
ATOM     72  C   UNK A   1      -5.388  18.531   1.769  1.00  0.00    +0.058 C 
ATOM     73  C   UNK A   1      -4.026  18.371   1.097  1.00  0.00    +0.220 C 
ATOM     74  O   UNK A   1      -3.009  18.021   1.711  1.00  0.00    -0.275 OA
ATOM     75  N   UNK A   1      -3.971  18.704  -0.235  1.00  0.00    -0.370 N 
ATOM     76  C   UNK A   1      -7.077  16.739   2.392  1.00  0.00    +0.267 C 
ATOM     77  O   UNK A   1      -7.451  17.234   3.456  1.00  0.00    -0.270 OA
ATOM     78  N   UNK A   1      -2.995  25.463  -2.911  1.00  0.00    -0.236 N 
ATOM     79  C   UNK A   1      -2.686  26.757  -2.225  1.00  0.00    +0.135 C 
ATOM     80  C   UNK A   1      -2.348  26.500  -0.731  1.00  0.00    -0.013 C 
ATOM     81  C   UNK A   1      -2.660  27.679   0.198  1.00  0.00    +0.029 C 
ATOM     82  C   UNK A   1      -1.652  28.808   0.170  1.00  0.00    +0.217 C 
ATOM     83  O   UNK A   1      -0.790  28.991   1.034  1.00  0.00    -0.275 OA
ATOM     84  N   UNK A   1      -1.795  29.710  -0.847  1.00  0.00    -0.370 N 
ATOM     85  C   UNK A   1      -1.463  27.450  -2.922  1.00  0.00    +0.266 C 
ATOM     86  O   UNK A   1      -0.298  27.075  -2.791  1.00  0.00    -0.270 OA
ATOM     87  N   UNK A   1      -6.913  15.421   2.212  1.00  0.00    -0.233 N 
ATOM     88  C   UNK A   1      -8.098  14.612   1.866  1.00  0.00    +0.160 C 
ATOM     89  C   UNK A   1      -9.277  14.467   2.853  1.00  0.00    +0.028 C 
ATOM     90  S   UNK A   1     -10.547  15.734   3.211  1.00  0.00    -0.140 S 
ATOM     91  C   UNK A   1      -8.516  14.518   0.423  1.00  0.00    +0.329 C 
ATOM     92  O   UNK A   1      -8.802  13.422  -0.076  1.00  0.00    -0.250 OA
ATOM     93  O   UNK A   1      -8.560  15.641  -0.296  1.00  0.00    -0.480 OA
ATOM     94  N   UNK A   1      -1.780  28.591  -3.562  1.00  0.00    -0.238 N 
ATOM     95  C   UNK A   1      -2.702  28.394  -4.684  1.00  0.00    +0.140 C 
ATOM     96  C   UNK A   1      -2.127  27.563  -5.810  1.00  0.00    +0.325 C 
ATOM     97  O   UNK A   1      -1.703  28.050  -6.861  1.00  0.00    -0.250 OA
ATOM     98  O   UNK A   1      -2.153  26.233  -5.589  1.00  0.00    -0.480 OA
ATOM     99  C   UNK A   1     -14.825  13.438   0.909  1.00  0.00    -0.059 C 
ATOM    100  C   UNK A   1     -15.063  12.715   2.072  1.00  0.00    -0.058 C 
ATOM    101  C   UNK A   1     -14.225  12.860   3.179  1.00  0.00    -0.038 C 
ATOM    102  C   UNK A   1     -14.375  11.922   4.362  1.00  0.00    +0.019 C 
ATOM    103  C   UNK A   1     -13.150  13.797   3.084  1.00  0.00    -0.053 C 
ATOM    104  C   UNK A   1     -12.873  14.549   1.902  1.00  0.00    -0.022 C 
ATOM    105  C   UNK A   1     -11.713  15.587   1.761  1.00  0.00    +0.076 C 
ATOM    106  C   UNK A   1     -13.721  14.302   0.789  1.00  0.00    -0.046 C 
ATOM    107  C   UNK A   1     -13.570  14.996  -0.544  1.00  0.00    -0.039 C 
ATOM    108  H   UNK A   1     -20.010   9.964   6.897  1.00  0.00    +0.060 HD
ATOM    109  H   UNK A   1     -17.977  10.195   9.213  1.00  0.00    +0.025 HD
ATOM    110  H   UNK A   1     -19.373  11.257   8.955  1.00  0.00    +0.025 HD
ATOM    111  H   UNK A   1     -18.013  11.279   7.830  1.00  0.00    +0.025 HD
ATOM    112  H   UNK A   1     -18.647  10.946   5.662  1.00  0.00    +0.067 HD
ATOM    113  H   UNK A   1     -16.434  10.146   3.732  1.00  0.00    +0.041 HD
ATOM    114  H   UNK A   1     -17.461  11.591   3.546  1.00  0.00    +0.041 HD
ATOM    115  H   UNK A   1     -19.704   9.877   0.774  1.00  0.00    +0.066 HD
ATOM    116  H   UNK A   1     -21.969   9.259   2.713  1.00  0.00    +0.033 HD
ATOM    117  H   UNK A   1     -20.175   7.360   1.099  1.00  0.00    +0.023 HD
ATOM    118  H   UNK A   1     -20.370   7.395   2.850  1.00  0.00    +0.023 HD
ATOM    119  H   UNK A   1     -21.714   6.885   1.844  1.00  0.00    +0.023 HD
ATOM    120  H   UNK A   1     -23.283   8.542   0.907  1.00  0.00    +0.027 HD
ATOM    121  H   UNK A   1     -22.778  10.175   0.559  1.00  0.00    +0.027 HD
ATOM    122  H   UNK A   1     -22.651   8.888  -1.478  1.00  0.00    +0.023 HD
ATOM    123  H   UNK A   1     -20.968   9.162  -0.997  1.00  0.00    +0.023 HD
ATOM    124  H   UNK A   1     -21.731   7.589  -0.715  1.00  0.00    +0.023 HD
ATOM    125  H   UNK A   1     -18.884  12.971   0.638  1.00  0.00    +0.066 HD
ATOM    126  H   UNK A   1     -18.858  10.941  -0.923  1.00  0.00    +0.030 HD
ATOM    127  H   UNK A   1     -17.888  12.309  -1.377  1.00  0.00    +0.030 HD
ATOM    128  H   UNK A   1     -19.247  12.881  -3.227  1.00  0.00    +0.030 HD
ATOM    129  H   UNK A   1     -17.834  10.889  -3.544  1.00  0.00    +0.023 HD
ATOM    130  H   UNK A   1     -19.189   9.837  -3.074  1.00  0.00    +0.023 HD
ATOM    131  H   UNK A   1     -19.294  10.819  -4.547  1.00  0.00    +0.023 HD
ATOM    132  H   UNK A   1     -21.396  11.846  -3.824  1.00  0.00    +0.023 HD
ATOM    133  H   UNK A   1     -21.537  12.761  -2.333  1.00  0.00    +0.023 HD
ATOM    134  H   UNK A   1     -21.451  10.990  -2.284  1.00  0.00    +0.023 HD
ATOM    135  H   UNK A   1     -18.473  16.463  -0.222  1.00  0.00    +0.062 HD
ATOM    136  H   UNK A   1     -17.170  15.327  -0.534  1.00  0.00    +0.062 HD
ATOM    137  H   UNK A   1     -16.247  19.182  -2.108  1.00  0.00    +0.066 HD
ATOM    138  H   UNK A   1     -14.858  18.824   0.490  1.00  0.00    +0.034 HD
ATOM    139  H   UNK A   1     -16.284  17.829   0.434  1.00  0.00    +0.034 HD
ATOM    140  H   UNK A   1     -18.521  18.852   0.178  1.00  0.00    +0.063 HD
ATOM    141  H   UNK A   1     -19.911  20.826   0.732  1.00  0.00    +0.062 HD
ATOM    142  H   UNK A   1     -18.830  23.049   1.111  1.00  0.00    +0.062 HD
ATOM    143  H   UNK A   1     -16.342  23.250   0.918  1.00  0.00    +0.062 HD
ATOM    144  H   UNK A   1     -14.983  21.248   0.377  1.00  0.00    +0.063 HD
ATOM    145  H   UNK A   1     -12.163  19.792  -0.334  1.00  0.00    +0.067 HD
ATOM    146  H   UNK A   1     -11.141  16.904  -0.550  1.00  0.00    +0.041 HD
ATOM    147  H   UNK A   1     -10.364  18.065   0.503  1.00  0.00    +0.041 HD
ATOM    148  H   UNK A   1      -8.011  19.912  -2.397  1.00  0.00    +0.066 HD
ATOM    149  H   UNK A   1      -8.098  22.199  -1.414  1.00  0.00    +0.040 HD
ATOM    150  H   UNK A   1      -7.517  21.594   0.133  1.00  0.00    +0.040 HD
ATOM    151  H   UNK A   1      -3.694  23.328  -1.752  1.00  0.00    +0.066 HD
ATOM    152  H   UNK A   1      -3.824  21.726  -3.429  1.00  0.00    +0.034 HD
ATOM    153  H   UNK A   1      -3.408  23.156  -4.333  1.00  0.00    +0.034 HD
ATOM    154  H   UNK A   1      -6.262  20.571  -3.816  1.00  0.00    +0.082 HD
ATOM    155  H   UNK A   1      -8.133  20.996  -5.368  1.00  0.00    +0.166 HD
ATOM    156  H   UNK A   1      -8.643  22.600  -7.693  1.00  0.00    +0.064 HD
ATOM    157  H   UNK A   1      -7.803  24.666  -8.822  1.00  0.00    +0.062 HD
ATOM    158  H   UNK A   1      -5.760  25.816  -7.967  1.00  0.00    +0.062 HD
ATOM    159  H   UNK A   1      -4.544  24.900  -6.006  1.00  0.00    +0.063 HD
ATOM    160  H   UNK A   1      -5.999  16.858   0.519  1.00  0.00    +0.066 HD
ATOM    161  H   UNK A   1      -5.221  18.358   2.838  1.00  0.00    +0.039 HD
ATOM    162  H   UNK A   1      -5.675  19.586   1.671  1.00  0.00    +0.039 HD
ATOM    163  H   UNK A   1      -4.813  18.325  -0.713  1.00  0.00    +0.159 HD
ATOM    164  H   UNK A   1      -4.302  19.676  -0.395  1.00  0.00    +0.159 HD
ATOM    165  H   UNK A   1      -3.543  27.444  -2.248  1.00  0.00    +0.066 HD
ATOM    166  H   UNK A   1      -1.301  26.199  -0.611  1.00  0.00    +0.030 HD
ATOM    167  H   UNK A   1      -2.952  25.657  -0.370  1.00  0.00    +0.030 HD
ATOM    168  H   UNK A   1      -3.659  28.082  -0.003  1.00  0.00    +0.037 HD
ATOM    169  H   UNK A   1      -2.680  27.315   1.234  1.00  0.00    +0.037 HD
ATOM    170  H   UNK A   1      -0.942  30.209  -1.038  1.00  0.00    +0.159 HD
ATOM    171  H   UNK A   1      -2.165  29.303  -1.719  1.00  0.00    +0.159 HD
ATOM    172  H   UNK A   1      -7.644  13.604   1.968  1.00  0.00    +0.068 HD
ATOM    173  H   UNK A   1      -9.839  13.561   2.596  1.00  0.00    +0.041 HD
ATOM    174  H   UNK A   1      -8.839  14.259   3.836  1.00  0.00    +0.041 HD
ATOM    175  H   UNK A   1      -8.312  16.495   0.167  1.00  0.00    +0.296 HD
ATOM    176  H   UNK A   1      -2.955  29.372  -5.119  1.00  0.00    +0.064 HD
ATOM    177  H   UNK A   1      -3.677  27.978  -4.410  1.00  0.00    +0.064 HD
ATOM    178  H   UNK A   1      -2.491  26.022  -4.660  1.00  0.00    +0.296 HD
ATOM    179  H   UNK A   1     -15.531  13.345   0.082  1.00  0.00    +0.063 HD
ATOM    180  H   UNK A   1     -15.913  12.039   2.077  1.00  0.00    +0.063 HD
ATOM    181  H   UNK A   1     -13.590  12.169   5.087  1.00  0.00    +0.043 HD
ATOM    182  H   UNK A   1     -14.160  10.895   4.039  1.00  0.00    +0.043 HD
ATOM    183  H   UNK A   1     -12.512  13.935   3.951  1.00  0.00    +0.063 HD
ATOM    184  H   UNK A   1     -11.107  15.288   0.905  1.00  0.00    +0.058 HD
ATOM    185  H   UNK A   1     -14.067  14.430  -1.341  1.00  0.00    +0.028 HD
ATOM    186  H   UNK A   1     -12.521  15.068  -0.841  1.00  0.00    +0.028 HD
ATOM    187  H   UNK A   1     -14.030  15.982  -0.493  1.00  0.00    +0.028 HD
ENDROOT
TORSDOF 0
ENDMDL
