REMARK  Generated by RDKit with Gasteiger charges
REMARK  --------------------------------------------------
ROOT
ATOM      1  N   UNK A   1      -6.787   8.729   2.150  1.00  0.00    -0.131 N 
ATOM      2  C   UNK A   1      -5.812   7.619   2.298  1.00  0.00    +0.121 C 
ATOM      3  C   UNK A   1      -4.701   7.897   1.286  1.00  0.00    -0.037 C 
ATOM      4  C   UNK A   1      -5.246   7.639   3.734  1.00  0.00    +0.262 C 
ATOM      5  O   UNK A   1      -5.232   8.715   4.355  1.00  0.00    -0.271 OA
ATOM      6  N   UNK A   1      -4.687   6.521   4.220  1.00  0.00    -0.236 N 
ATOM      7  C   UNK A   1      -4.889   5.181   3.536  1.00  0.00    +0.143 C 
ATOM      8  C   UNK A   1      -3.627   4.270   3.564  1.00  0.00    +0.025 C 
ATOM      9  S   UNK A   1      -2.318   4.741   2.276  1.00  0.00    -0.154 S 
ATOM     10  C   UNK A   1      -6.240   4.522   4.038  1.00  0.00    +0.267 C 
ATOM     11  O   UNK A   1      -7.279   4.830   3.418  1.00  0.00    -0.270 OA
ATOM     12  N   UNK A   1      -6.234   3.815   5.192  1.00  0.00    -0.236 N 
ATOM     13  C   UNK A   1      -5.883   2.341   5.087  1.00  0.00    +0.131 C 
ATOM     14  C   UNK A   1      -4.738   2.088   6.101  1.00  0.00    -0.033 C 
ATOM     15  C   UNK A   1      -7.056   1.302   5.379  1.00  0.00    +0.266 C 
ATOM     16  O   UNK A   1      -8.215   1.632   5.667  1.00  0.00    -0.270 OA
ATOM     17  N   UNK A   1      -6.629   0.018   5.419  1.00  0.00    -0.236 N 
ATOM     18  C   UNK A   1      -6.788  -0.894   4.225  1.00  0.00    +0.138 C 
ATOM     19  C   UNK A   1      -7.756  -0.488   3.080  1.00  0.00    +0.006 C 
ATOM     20  C   UNK A   1      -7.486   0.689   2.178  1.00  0.00    -0.020 C 
ATOM     21  C   UNK A   1      -7.946   1.980   2.378  1.00  0.00    +0.005 C 
ATOM     22  N   UNK A   1      -7.354   2.787   1.447  1.00  0.00    -0.361 N 
ATOM     23  C   UNK A   1      -6.762   2.044   0.457  1.00  0.00    +0.046 C 
ATOM     24  C   UNK A   1      -6.114   2.442  -0.718  1.00  0.00    -0.038 C 
ATOM     25  C   UNK A   1      -5.461   1.447  -1.458  1.00  0.00    -0.060 C 
ATOM     26  C   UNK A   1      -5.462   0.116  -1.042  1.00  0.00    -0.062 C 
ATOM     27  C   UNK A   1      -6.134  -0.248   0.134  1.00  0.00    -0.053 C 
ATOM     28  C   UNK A   1      -6.788   0.720   0.916  1.00  0.00    +0.003 C 
ATOM     29  C   UNK A   1      -5.450  -1.703   3.860  1.00  0.00    +0.267 C 
ATOM     30  O   UNK A   1      -4.542  -1.844   4.692  1.00  0.00    -0.270 OA
ATOM     31  N   UNK A   1      -5.500  -2.334   2.655  1.00  0.00    -0.236 N 
ATOM     32  C   UNK A   1      -4.320  -3.264   2.355  1.00  0.00    +0.134 C 
ATOM     33  C   UNK A   1      -4.529  -4.561   3.207  1.00  0.00    -0.020 C 
ATOM     34  C   UNK A   1      -5.108  -5.772   2.466  1.00  0.00    -0.033 C 
ATOM     35  C   UNK A   1      -5.758  -6.756   3.447  1.00  0.00    +0.018 C 
ATOM     36  N   UNK A   1      -4.800  -7.321   4.429  1.00  0.00    -0.357 N 
ATOM     37  C   UNK A   1      -4.430  -8.617   4.289  1.00  0.00    +0.185 C 
ATOM     38  N   UNK A   1      -5.180  -9.599   4.668  1.00  0.00    -0.270 N 
ATOM     39  N   UNK A   1      -3.288  -8.788   3.589  1.00  0.00    -0.370 N 
ATOM     40  C   UNK A   1      -4.101  -3.598   0.808  1.00  0.00    +0.266 C 
ATOM     41  O   UNK A   1      -4.985  -3.414  -0.034  1.00  0.00    -0.270 OA
ATOM     42  N   UNK A   1      -2.976  -4.321   0.555  1.00  0.00    -0.236 N 
ATOM     43  C   UNK A   1      -1.707  -3.554   0.184  1.00  0.00    +0.136 C 
ATOM     44  C   UNK A   1      -0.545  -4.131   1.108  1.00  0.00    -0.015 C 
ATOM     45  C   UNK A   1      -0.744  -3.706   2.570  1.00  0.00    -0.060 C 
ATOM     46  C   UNK A   1       0.900  -3.755   0.729  1.00  0.00    -0.060 C 
ATOM     47  C   UNK A   1      -1.284  -3.611  -1.388  1.00  0.00    +0.267 C 
ATOM     48  O   UNK A   1      -1.702  -4.458  -2.182  1.00  0.00    -0.270 OA
ATOM     49  N   UNK A   1      -0.394  -2.615  -1.632  1.00  0.00    -0.235 N 
ATOM     50  C   UNK A   1       0.509  -2.448  -2.849  1.00  0.00    +0.143 C 
ATOM     51  C   UNK A   1       1.540  -1.294  -2.438  1.00  0.00    +0.027 C 
ATOM     52  S   UNK A   1       0.888   0.479  -2.318  1.00  0.00    -0.140 S 
ATOM     53  C   UNK A   1       1.319  -3.700  -3.475  1.00  0.00    +0.267 C 
ATOM     54  O   UNK A   1       1.046  -4.877  -3.241  1.00  0.00    -0.270 OA
ATOM     55  N   UNK A   1       2.352  -3.340  -4.282  1.00  0.00    -0.236 N 
ATOM     56  C   UNK A   1       2.268  -3.654  -5.744  1.00  0.00    +0.131 C 
ATOM     57  C   UNK A   1       1.549  -2.474  -6.459  1.00  0.00    -0.033 C 
ATOM     58  C   UNK A   1       3.665  -3.973  -6.456  1.00  0.00    +0.266 C 
ATOM     59  O   UNK A   1       3.968  -5.162  -6.719  1.00  0.00    -0.271 OA
ATOM     60  N   UNK A   1       4.340  -2.884  -6.898  1.00  0.00    -0.239 N 
ATOM     61  C   UNK A   1       5.773  -3.112  -7.295  1.00  0.00    +0.124 C 
ATOM     62  C   UNK A   1       6.467  -1.985  -8.137  1.00  0.00    +0.263 C 
ATOM     63  O   UNK A   1       6.031  -1.610  -9.236  1.00  0.00    -0.271 OA
ATOM     64  N   UNK A   1       7.722  -1.680  -7.700  1.00  0.00    -0.240 N 
ATOM     65  C   UNK A   1       7.840  -0.249  -7.234  1.00  0.00    +0.124 C 
ATOM     66  C   UNK A   1       9.271   0.210  -6.763  1.00  0.00    +0.263 C 
ATOM     67  O   UNK A   1      10.304  -0.390  -7.084  1.00  0.00    -0.271 OA
ATOM     68  N   UNK A   1       9.277   1.410  -6.115  1.00  0.00    -0.236 N 
ATOM     69  C   UNK A   1       9.101   1.306  -4.601  1.00  0.00    +0.136 C 
ATOM     70  C   UNK A   1      10.477   1.476  -3.865  1.00  0.00    -0.015 C 
ATOM     71  C   UNK A   1      10.341   1.225  -2.357  1.00  0.00    -0.060 C 
ATOM     72  C   UNK A   1      11.568   0.523  -4.386  1.00  0.00    -0.060 C 
ATOM     73  C   UNK A   1       8.113   2.435  -4.019  1.00  0.00    +0.267 C 
ATOM     74  O   UNK A   1       8.271   3.633  -4.284  1.00  0.00    -0.270 OA
ATOM     75  N   UNK A   1       7.206   1.873  -3.200  1.00  0.00    -0.235 N 
ATOM     76  C   UNK A   1       6.132   2.718  -2.561  1.00  0.00    +0.143 C 
ATOM     77  C   UNK A   1       4.895   1.792  -2.215  1.00  0.00    +0.027 C 
ATOM     78  S   UNK A   1       3.172   2.585  -2.183  1.00  0.00    -0.140 S 
ATOM     79  C   UNK A   1       6.660   3.517  -1.326  1.00  0.00    +0.267 C 
ATOM     80  O   UNK A   1       6.628   4.753  -1.262  1.00  0.00    -0.270 OA
ATOM     81  N   UNK A   1       7.180   2.766  -0.338  1.00  0.00    -0.238 N 
ATOM     82  C   UNK A   1       7.525   3.449   0.903  1.00  0.00    +0.140 C 
ATOM     83  C   UNK A   1       8.797   4.256   0.910  1.00  0.00    +0.325 C 
ATOM     84  O   UNK A   1       9.617   4.228   1.839  1.00  0.00    -0.250 OA
ATOM     85  O   UNK A   1       8.916   5.135  -0.118  1.00  0.00    -0.480 OA
ATOM     86  C   UNK A   1       1.828   2.675   2.400  1.00  0.00    -0.059 C 
ATOM     87  C   UNK A   1       0.485   3.043   2.477  1.00  0.00    -0.058 C 
ATOM     88  C   UNK A   1      -0.373   2.839   1.388  1.00  0.00    -0.038 C 
ATOM     89  C   UNK A   1      -1.885   3.053   1.570  1.00  0.00    +0.019 C 
ATOM     90  C   UNK A   1       0.199   2.324   0.192  1.00  0.00    -0.053 C 
ATOM     91  C   UNK A   1       1.573   1.926   0.084  1.00  0.00    -0.022 C 
ATOM     92  C   UNK A   1       2.179   1.265  -1.208  1.00  0.00    +0.076 C 
ATOM     93  C   UNK A   1       2.370   2.071   1.249  1.00  0.00    -0.046 C 
ATOM     94  C   UNK A   1       3.810   1.640   1.299  1.00  0.00    -0.039 C 
ATOM     95  H   UNK A   1      -6.349   6.704   2.052  1.00  0.00    +0.060 HD
ATOM     96  H   UNK A   1      -5.137   7.978   0.283  1.00  0.00    +0.025 HD
ATOM     97  H   UNK A   1      -4.176   8.839   1.511  1.00  0.00    +0.025 HD
ATOM     98  H   UNK A   1      -3.952   7.098   1.254  1.00  0.00    +0.025 HD
ATOM     99  H   UNK A   1      -5.058   5.270   2.459  1.00  0.00    +0.067 HD
ATOM    100  H   UNK A   1      -3.898   3.237   3.357  1.00  0.00    +0.041 HD
ATOM    101  H   UNK A   1      -3.120   4.307   4.533  1.00  0.00    +0.041 HD
ATOM    102  H   UNK A   1      -5.502   2.077   4.090  1.00  0.00    +0.065 HD
ATOM    103  H   UNK A   1      -5.072   2.281   7.129  1.00  0.00    +0.026 HD
ATOM    104  H   UNK A   1      -3.876   2.740   5.904  1.00  0.00    +0.026 HD
ATOM    105  H   UNK A   1      -4.387   1.046   6.052  1.00  0.00    +0.026 HD
ATOM    106  H   UNK A   1      -7.357  -1.739   4.673  1.00  0.00    +0.066 HD
ATOM    107  H   UNK A   1      -7.936  -1.360   2.434  1.00  0.00    +0.034 HD
ATOM    108  H   UNK A   1      -8.733  -0.299   3.547  1.00  0.00    +0.034 HD
ATOM    109  H   UNK A   1      -8.461   2.425   3.227  1.00  0.00    +0.082 HD
ATOM    110  H   UNK A   1      -7.322   3.799   1.528  1.00  0.00    +0.166 HD
ATOM    111  H   UNK A   1      -6.062   3.484  -1.014  1.00  0.00    +0.064 HD
ATOM    112  H   UNK A   1      -4.864   1.719  -2.325  1.00  0.00    +0.062 HD
ATOM    113  H   UNK A   1      -4.880  -0.652  -1.551  1.00  0.00    +0.062 HD
ATOM    114  H   UNK A   1      -6.084  -1.276   0.469  1.00  0.00    +0.063 HD
ATOM    115  H   UNK A   1      -3.395  -2.769   2.667  1.00  0.00    +0.066 HD
ATOM    116  H   UNK A   1      -5.204  -4.331   4.042  1.00  0.00    +0.029 HD
ATOM    117  H   UNK A   1      -3.575  -4.838   3.667  1.00  0.00    +0.029 HD
ATOM    118  H   UNK A   1      -4.306  -6.303   1.937  1.00  0.00    +0.029 HD
ATOM    119  H   UNK A   1      -5.870  -5.465   1.746  1.00  0.00    +0.029 HD
ATOM    120  H   UNK A   1      -6.248  -7.563   2.886  1.00  0.00    +0.049 HD
ATOM    121  H   UNK A   1      -6.566  -6.239   3.986  1.00  0.00    +0.049 HD
ATOM    122  H   UNK A   1      -3.988  -6.695   4.418  1.00  0.00    +0.163 HD
ATOM    123  H   UNK A   1      -5.982  -9.096   5.071  1.00  0.00    +0.191 HD
ATOM    124  H   UNK A   1      -3.279  -9.719   3.184  1.00  0.00    +0.159 HD
ATOM    125  H   UNK A   1      -3.184  -8.056   2.869  1.00  0.00    +0.159 HD
ATOM    126  H   UNK A   1      -1.842  -2.480   0.424  1.00  0.00    +0.066 HD
ATOM    127  H   UNK A   1      -0.585  -5.230   1.067  1.00  0.00    +0.032 HD
ATOM    128  H   UNK A   1       0.144  -3.935   3.158  1.00  0.00    +0.023 HD
ATOM    129  H   UNK A   1      -1.569  -4.235   3.041  1.00  0.00    +0.023 HD
ATOM    130  H   UNK A   1      -0.933  -2.634   2.648  1.00  0.00    +0.023 HD
ATOM    131  H   UNK A   1       1.171  -4.168  -0.244  1.00  0.00    +0.023 HD
ATOM    132  H   UNK A   1       1.605  -4.168   1.462  1.00  0.00    +0.023 HD
ATOM    133  H   UNK A   1       1.041  -2.670   0.722  1.00  0.00    +0.023 HD
ATOM    134  H   UNK A   1      -0.091  -2.066  -3.689  1.00  0.00    +0.067 HD
ATOM    135  H   UNK A   1       2.378  -1.217  -3.132  1.00  0.00    +0.041 HD
ATOM    136  H   UNK A   1       1.970  -1.532  -1.457  1.00  0.00    +0.041 HD
ATOM    137  H   UNK A   1       1.633  -4.546  -5.929  1.00  0.00    +0.065 HD
ATOM    138  H   UNK A   1       1.678  -2.535  -7.547  1.00  0.00    +0.026 HD
ATOM    139  H   UNK A   1       0.471  -2.500  -6.292  1.00  0.00    +0.026 HD
ATOM    140  H   UNK A   1       1.936  -1.503  -6.127  1.00  0.00    +0.026 HD
ATOM    141  H   UNK A   1       6.365  -3.310  -6.389  1.00  0.00    +0.062 HD
ATOM    142  H   UNK A   1       5.849  -4.008  -7.926  1.00  0.00    +0.062 HD
ATOM    143  H   UNK A   1       7.146  -0.079  -6.400  1.00  0.00    +0.062 HD
ATOM    144  H   UNK A   1       7.546   0.440  -8.038  1.00  0.00    +0.062 HD
ATOM    145  H   UNK A   1       8.692   0.316  -4.336  1.00  0.00    +0.066 HD
ATOM    146  H   UNK A   1      10.838   2.503  -4.016  1.00  0.00    +0.032 HD
ATOM    147  H   UNK A   1      11.322   1.247  -1.864  1.00  0.00    +0.023 HD
ATOM    148  H   UNK A   1       9.724   1.972  -1.860  1.00  0.00    +0.023 HD
ATOM    149  H   UNK A   1       9.894   0.244  -2.172  1.00  0.00    +0.023 HD
ATOM    150  H   UNK A   1      11.797   0.700  -5.440  1.00  0.00    +0.023 HD
ATOM    151  H   UNK A   1      11.279  -0.527  -4.235  1.00  0.00    +0.023 HD
ATOM    152  H   UNK A   1      12.508   0.703  -3.851  1.00  0.00    +0.023 HD
ATOM    153  H   UNK A   1       5.781   3.456  -3.291  1.00  0.00    +0.067 HD
ATOM    154  H   UNK A   1       5.048   1.296  -1.248  1.00  0.00    +0.041 HD
ATOM    155  H   UNK A   1       4.816   0.987  -2.964  1.00  0.00    +0.041 HD
ATOM    156  H   UNK A   1       7.681   2.679   1.673  1.00  0.00    +0.064 HD
ATOM    157  H   UNK A   1       6.734   4.113   1.284  1.00  0.00    +0.064 HD
ATOM    158  H   UNK A   1       8.138   4.917  -0.721  1.00  0.00    +0.296 HD
ATOM    159  H   UNK A   1       2.428   2.760   3.299  1.00  0.00    +0.063 HD
ATOM    160  H   UNK A   1       0.093   3.398   3.423  1.00  0.00    +0.063 HD
ATOM    161  H   UNK A   1      -2.274   2.246   2.202  1.00  0.00    +0.043 HD
ATOM    162  H   UNK A   1      -2.387   3.001   0.597  1.00  0.00    +0.043 HD
ATOM    163  H   UNK A   1      -0.442   2.218  -0.677  1.00  0.00    +0.063 HD
ATOM    164  H   UNK A   1       2.868   0.478  -0.889  1.00  0.00    +0.058 HD
ATOM    165  H   UNK A   1       4.420   2.240   0.629  1.00  0.00    +0.028 HD
ATOM    166  H   UNK A   1       4.217   1.752   2.315  1.00  0.00    +0.028 HD
ATOM    167  H   UNK A   1       3.894   0.568   1.072  1.00  0.00    +0.028 HD
ENDROOT
TORSDOF 0