REMARK  Generated by RDKit with Gasteiger charges
REMARK  --------------------------------------------------
ROOT
ATOM      1  N   UNK A   1      -5.906  10.268  -4.240  1.00  0.00    -0.131 N 
ATOM      2  C   UNK A   1      -4.854   9.695  -3.383  1.00  0.00    +0.121 C 
ATOM      3  C   UNK A   1      -4.503  10.714  -2.303  1.00  0.00    -0.037 C 
ATOM      4  C   UNK A   1      -5.351   8.385  -2.752  1.00  0.00    +0.262 C 
ATOM      5  O   UNK A   1      -6.539   8.203  -2.478  1.00  0.00    -0.271 OA
ATOM      6  N   UNK A   1      -4.307   7.566  -2.566  1.00  0.00    -0.236 N 
ATOM      7  C   UNK A   1      -4.481   6.533  -1.496  1.00  0.00    +0.141 C 
ATOM      8  C   UNK A   1      -3.284   5.528  -1.427  1.00  0.00    +0.025 C 
ATOM      9  S   UNK A   1      -3.223   4.263  -2.775  1.00  0.00    -0.154 S 
ATOM     10  C   UNK A   1      -4.537   7.182  -0.077  1.00  0.00    +0.249 C 
ATOM     11  O   UNK A   1      -4.163   8.338   0.164  1.00  0.00    -0.272 OA
ATOM     12  N   UNK A   1      -5.025   6.342   0.926  1.00  0.00    -0.329 N 
ATOM     13  C   UNK A   1      -6.320   5.715   0.750  1.00  0.00    +0.021 C 
ATOM     14  C   UNK A   1      -7.170   6.213   1.930  1.00  0.00    -0.033 C 
ATOM     15  C   UNK A   1      -6.272   7.222   2.652  1.00  0.00    -0.022 C 
ATOM     16  C   UNK A   1      -4.867   6.687   2.343  1.00  0.00    +0.113 C 
ATOM     17  C   UNK A   1      -4.513   5.530   3.359  1.00  0.00    +0.264 C 
ATOM     18  O   UNK A   1      -5.010   5.555   4.496  1.00  0.00    -0.271 OA
ATOM     19  N   UNK A   1      -3.583   4.694   2.878  1.00  0.00    -0.236 N 
ATOM     20  C   UNK A   1      -3.544   3.304   3.482  1.00  0.00    +0.136 C 
ATOM     21  C   UNK A   1      -4.759   2.460   2.966  1.00  0.00    -0.015 C 
ATOM     22  C   UNK A   1      -4.965   1.176   3.779  1.00  0.00    -0.060 C 
ATOM     23  C   UNK A   1      -4.760   2.153   1.464  1.00  0.00    -0.060 C 
ATOM     24  C   UNK A   1      -2.085   2.618   3.453  1.00  0.00    +0.267 C 
ATOM     25  O   UNK A   1      -1.252   3.007   4.284  1.00  0.00    -0.270 OA
ATOM     26  N   UNK A   1      -1.939   1.661   2.510  1.00  0.00    -0.235 N 
ATOM     27  C   UNK A   1      -0.836   0.580   2.646  1.00  0.00    +0.143 C 
ATOM     28  C   UNK A   1      -1.500  -0.888   2.472  1.00  0.00    +0.060 C 
ATOM     29  C   UNK A   1      -1.964  -1.763   3.721  1.00  0.00    +0.244 C 
ATOM     30  O   UNK A   1      -1.687  -1.447   4.883  1.00  0.00    -0.273 OA
ATOM     31  C   UNK A   1       0.300   0.808   1.455  1.00  0.00    +0.267 C 
ATOM     32  O   UNK A   1       0.048   1.495   0.459  1.00  0.00    -0.270 OA
ATOM     33  N   UNK A   1      -2.736  -2.865   3.458  1.00  0.00    -0.238 N 
ATOM     34  C   UNK A   1      -2.257  -3.873   2.450  1.00  0.00    +0.134 C 
ATOM     35  C   UNK A   1      -0.815  -4.381   2.717  1.00  0.00    -0.019 C 
ATOM     36  C   UNK A   1      -0.604  -5.418   3.845  1.00  0.00    -0.045 C 
ATOM     37  C   UNK A   1       0.854  -5.890   3.834  1.00  0.00    -0.063 C 
ATOM     38  C   UNK A   1      -0.951  -4.886   5.235  1.00  0.00    -0.063 C 
ATOM     39  C   UNK A   1      -3.226  -5.133   2.319  1.00  0.00    +0.266 C 
ATOM     40  O   UNK A   1      -3.869  -5.579   3.277  1.00  0.00    -0.270 OA
ATOM     41  N   UNK A   1       1.497   0.200   1.707  1.00  0.00    -0.235 N 
ATOM     42  C   UNK A   1       2.373  -0.323   0.549  1.00  0.00    +0.143 C 
ATOM     43  C   UNK A   1       1.636  -0.595  -0.810  1.00  0.00    +0.027 C 
ATOM     44  S   UNK A   1       0.260  -1.890  -0.817  1.00  0.00    -0.140 S 
ATOM     45  C   UNK A   1       3.731   0.526   0.239  1.00  0.00    +0.267 C 
ATOM     46  O   UNK A   1       3.669   1.669  -0.230  1.00  0.00    -0.270 OA
ATOM     47  N   UNK A   1      -3.258  -5.611   1.050  1.00  0.00    -0.235 N 
ATOM     48  C   UNK A   1      -4.109  -6.805   0.767  1.00  0.00    +0.143 C 
ATOM     49  C   UNK A   1      -5.541  -6.422   0.329  1.00  0.00    +0.058 C 
ATOM     50  C   UNK A   1      -6.428  -5.961   1.470  1.00  0.00    +0.220 C 
ATOM     51  O   UNK A   1      -7.350  -6.633   1.946  1.00  0.00    -0.275 OA
ATOM     52  N   UNK A   1      -6.191  -4.674   1.879  1.00  0.00    -0.370 N 
ATOM     53  C   UNK A   1      -3.451  -7.753  -0.313  1.00  0.00    +0.267 C 
ATOM     54  O   UNK A   1      -2.867  -8.783   0.047  1.00  0.00    -0.270 OA
ATOM     55  N   UNK A   1       4.909  -0.163   0.450  1.00  0.00    -0.236 N 
ATOM     56  C   UNK A   1       6.196   0.675   0.291  1.00  0.00    +0.138 C 
ATOM     57  C   UNK A   1       6.291   1.677   1.490  1.00  0.00    +0.004 C 
ATOM     58  C   UNK A   1       7.290   2.804   1.273  1.00  0.00    -0.045 C 
ATOM     59  C   UNK A   1       6.932   3.933   0.521  1.00  0.00    -0.055 C 
ATOM     60  C   UNK A   1       7.902   4.857   0.124  1.00  0.00    -0.020 C 
ATOM     61  C   UNK A   1       9.228   4.625   0.469  1.00  0.00    +0.115 C 
ATOM     62  O   UNK A   1      10.222   5.344  -0.147  1.00  0.00    -0.508 OA
ATOM     63  C   UNK A   1       9.595   3.550   1.275  1.00  0.00    -0.020 C 
ATOM     64  C   UNK A   1       8.620   2.647   1.686  1.00  0.00    -0.055 C 
ATOM     65  C   UNK A   1       7.566  -0.176   0.292  1.00  0.00    +0.267 C 
ATOM     66  O   UNK A   1       7.761  -1.091   1.104  1.00  0.00    -0.270 OA
ATOM     67  N   UNK A   1      -3.686  -7.388  -1.594  1.00  0.00    -0.235 N 
ATOM     68  C   UNK A   1      -2.620  -7.759  -2.572  1.00  0.00    +0.143 C 
ATOM     69  C   UNK A   1      -2.796  -9.233  -3.022  1.00  0.00    +0.058 C 
ATOM     70  C   UNK A   1      -1.913  -9.700  -4.171  1.00  0.00    +0.220 C 
ATOM     71  O   UNK A   1      -2.272 -10.532  -5.017  1.00  0.00    -0.275 OA
ATOM     72  N   UNK A   1      -0.607  -9.299  -4.152  1.00  0.00    -0.370 N 
ATOM     73  C   UNK A   1      -2.729  -6.861  -3.854  1.00  0.00    +0.267 C 
ATOM     74  O   UNK A   1      -3.683  -7.018  -4.629  1.00  0.00    -0.270 OA
ATOM     75  N   UNK A   1       8.505   0.298  -0.589  1.00  0.00    -0.236 N 
ATOM     76  C   UNK A   1       9.906  -0.186  -0.345  1.00  0.00    +0.131 C 
ATOM     77  C   UNK A   1      10.091  -1.591  -0.942  1.00  0.00    -0.033 C 
ATOM     78  C   UNK A   1      11.014   0.717  -0.985  1.00  0.00    +0.266 C 
ATOM     79  O   UNK A   1      11.040   1.051  -2.172  1.00  0.00    -0.271 OA
ATOM     80  N   UNK A   1      -1.667  -6.103  -4.200  1.00  0.00    -0.233 N 
ATOM     81  C   UNK A   1      -0.916  -5.271  -3.194  1.00  0.00    +0.160 C 
ATOM     82  C   UNK A   1      -1.783  -4.412  -2.235  1.00  0.00    +0.028 C 
ATOM     83  S   UNK A   1      -2.050  -2.652  -2.800  1.00  0.00    -0.140 S 
ATOM     84  C   UNK A   1       0.241  -6.083  -2.579  1.00  0.00    +0.329 C 
ATOM     85  O   UNK A   1       0.755  -7.065  -3.126  1.00  0.00    -0.250 OA
ATOM     86  O   UNK A   1       0.824  -5.575  -1.473  1.00  0.00    -0.480 OA
ATOM     87  N   UNK A   1      12.056   0.938  -0.153  1.00  0.00    -0.238 N 
ATOM     88  C   UNK A   1      12.911   2.073  -0.519  1.00  0.00    +0.140 C 
ATOM     89  C   UNK A   1      14.002   1.744  -1.515  1.00  0.00    +0.325 C 
ATOM     90  O   UNK A   1      15.167   2.133  -1.416  1.00  0.00    -0.250 OA
ATOM     91  O   UNK A   1      13.580   1.050  -2.594  1.00  0.00    -0.480 OA
ATOM     92  C   UNK A   1      -0.355   1.311  -4.866  1.00  0.00    -0.059 C 
ATOM     93  C   UNK A   1      -1.016   2.277  -4.101  1.00  0.00    -0.058 C 
ATOM     94  C   UNK A   1      -1.514   1.967  -2.831  1.00  0.00    -0.038 C 
ATOM     95  C   UNK A   1      -2.117   3.021  -1.906  1.00  0.00    +0.019 C 
ATOM     96  C   UNK A   1      -1.295   0.659  -2.340  1.00  0.00    -0.053 C 
ATOM     97  C   UNK A   1      -0.606  -0.336  -3.081  1.00  0.00    -0.022 C 
ATOM     98  C   UNK A   1      -0.417  -1.757  -2.504  1.00  0.00    +0.076 C 
ATOM     99  C   UNK A   1      -0.147   0.008  -4.377  1.00  0.00    -0.046 C 
ATOM    100  C   UNK A   1       0.591  -0.979  -5.236  1.00  0.00    -0.039 C 
ATOM    101  H   UNK A   1      -3.983   9.510  -4.021  1.00  0.00    +0.060 HD
ATOM    102  H   UNK A   1      -4.232  11.681  -2.746  1.00  0.00    +0.025 HD
ATOM    103  H   UNK A   1      -3.651  10.371  -1.708  1.00  0.00    +0.025 HD
ATOM    104  H   UNK A   1      -5.342  10.877  -1.618  1.00  0.00    +0.025 HD
ATOM    105  H   UNK A   1      -5.392   5.955  -1.679  1.00  0.00    +0.067 HD
ATOM    106  H   UNK A   1      -2.334   6.076  -1.454  1.00  0.00    +0.041 HD
ATOM    107  H   UNK A   1      -3.320   4.971  -0.486  1.00  0.00    +0.041 HD
ATOM    108  H   UNK A   1      -6.210   4.625   0.791  1.00  0.00    +0.049 HD
ATOM    109  H   UNK A   1      -6.802   5.998  -0.190  1.00  0.00    +0.049 HD
ATOM    110  H   UNK A   1      -8.106   6.674   1.596  1.00  0.00    +0.029 HD
ATOM    111  H   UNK A   1      -7.430   5.375   2.589  1.00  0.00    +0.029 HD
ATOM    112  H   UNK A   1      -6.404   8.216   2.203  1.00  0.00    +0.029 HD
ATOM    113  H   UNK A   1      -6.509   7.306   3.717  1.00  0.00    +0.029 HD
ATOM    114  H   UNK A   1      -4.110   7.470   2.478  1.00  0.00    +0.064 HD
ATOM    115  H   UNK A   1      -3.708   3.398   4.570  1.00  0.00    +0.066 HD
ATOM    116  H   UNK A   1      -5.661   3.065   3.142  1.00  0.00    +0.032 HD
ATOM    117  H   UNK A   1      -5.058   1.402   4.846  1.00  0.00    +0.023 HD
ATOM    118  H   UNK A   1      -4.142   0.471   3.649  1.00  0.00    +0.023 HD
ATOM    119  H   UNK A   1      -5.884   0.670   3.465  1.00  0.00    +0.023 HD
ATOM    120  H   UNK A   1      -4.453   3.019   0.870  1.00  0.00    +0.023 HD
ATOM    121  H   UNK A   1      -4.110   1.313   1.204  1.00  0.00    +0.023 HD
ATOM    122  H   UNK A   1      -5.771   1.873   1.143  1.00  0.00    +0.023 HD
ATOM    123  H   UNK A   1      -0.326   0.639   3.615  1.00  0.00    +0.066 HD
ATOM    124  H   UNK A   1      -0.756  -1.509   1.964  1.00  0.00    +0.040 HD
ATOM    125  H   UNK A   1      -2.363  -0.798   1.799  1.00  0.00    +0.040 HD
ATOM    126  H   UNK A   1      -2.251  -3.385   1.461  1.00  0.00    +0.066 HD
ATOM    127  H   UNK A   1      -0.138  -3.533   2.891  1.00  0.00    +0.030 HD
ATOM    128  H   UNK A   1      -0.466  -4.841   1.782  1.00  0.00    +0.030 HD
ATOM    129  H   UNK A   1      -1.225  -6.300   3.651  1.00  0.00    +0.030 HD
ATOM    130  H   UNK A   1       1.024  -6.656   4.599  1.00  0.00    +0.023 HD
ATOM    131  H   UNK A   1       1.545  -5.061   4.028  1.00  0.00    +0.023 HD
ATOM    132  H   UNK A   1       1.116  -6.330   2.866  1.00  0.00    +0.023 HD
ATOM    133  H   UNK A   1      -2.025  -4.700   5.332  1.00  0.00    +0.023 HD
ATOM    134  H   UNK A   1      -0.416  -3.956   5.447  1.00  0.00    +0.023 HD
ATOM    135  H   UNK A   1      -0.677  -5.612   6.005  1.00  0.00    +0.023 HD
ATOM    136  H   UNK A   1       2.736  -1.308   0.884  1.00  0.00    +0.067 HD
ATOM    137  H   UNK A   1       2.377  -0.968  -1.528  1.00  0.00    +0.041 HD
ATOM    138  H   UNK A   1       1.266   0.342  -1.226  1.00  0.00    +0.041 HD
ATOM    139  H   UNK A   1      -4.200  -7.444   1.658  1.00  0.00    +0.066 HD
ATOM    140  H   UNK A   1      -6.045  -7.287  -0.123  1.00  0.00    +0.039 HD
ATOM    141  H   UNK A   1      -5.531  -5.639  -0.440  1.00  0.00    +0.039 HD
ATOM    142  H   UNK A   1      -5.285  -4.338   1.515  1.00  0.00    +0.159 HD
ATOM    143  H   UNK A   1      -6.062  -4.631   2.886  1.00  0.00    +0.159 HD
ATOM    144  H   UNK A   1       6.158   1.226  -0.659  1.00  0.00    +0.066 HD
ATOM    145  H   UNK A   1       5.321   2.137   1.708  1.00  0.00    +0.034 HD
ATOM    146  H   UNK A   1       6.557   1.135   2.408  1.00  0.00    +0.034 HD
ATOM    147  H   UNK A   1       5.904   4.009   0.165  1.00  0.00    +0.063 HD
ATOM    148  H   UNK A   1       7.625   5.651  -0.558  1.00  0.00    +0.066 HD
ATOM    149  H   UNK A   1      10.692   4.609  -0.596  1.00  0.00    +0.293 HD
ATOM    150  H   UNK A   1      10.634   3.326   1.486  1.00  0.00    +0.066 HD
ATOM    151  H   UNK A   1       8.905   1.728   2.197  1.00  0.00    +0.063 HD
ATOM    152  H   UNK A   1      -1.633  -7.654  -2.119  1.00  0.00    +0.066 HD
ATOM    153  H   UNK A   1      -2.615  -9.917  -2.185  1.00  0.00    +0.039 HD
ATOM    154  H   UNK A   1      -3.834  -9.395  -3.342  1.00  0.00    +0.039 HD
ATOM    155  H   UNK A   1      -0.150  -9.317  -5.044  1.00  0.00    +0.159 HD
ATOM    156  H   UNK A   1      -0.433  -8.403  -3.673  1.00  0.00    +0.159 HD
ATOM    157  H   UNK A   1      10.111  -0.239   0.735  1.00  0.00    +0.065 HD
ATOM    158  H   UNK A   1       9.875  -1.600  -2.017  1.00  0.00    +0.026 HD
ATOM    159  H   UNK A   1       9.431  -2.324  -0.464  1.00  0.00    +0.026 HD
ATOM    160  H   UNK A   1      11.124  -1.937  -0.810  1.00  0.00    +0.026 HD
ATOM    161  H   UNK A   1      -0.340  -4.551  -3.799  1.00  0.00    +0.068 HD
ATOM    162  H   UNK A   1      -1.429  -4.385  -1.204  1.00  0.00    +0.041 HD
ATOM    163  H   UNK A   1      -2.797  -4.813  -2.179  1.00  0.00    +0.041 HD
ATOM    164  H   UNK A   1       0.379  -4.796  -1.067  1.00  0.00    +0.296 HD
ATOM    165  H   UNK A   1      12.355   2.938  -0.904  1.00  0.00    +0.064 HD
ATOM    166  H   UNK A   1      13.423   2.426   0.388  1.00  0.00    +0.064 HD
ATOM    167  H   UNK A   1      12.598   0.887  -2.445  1.00  0.00    +0.296 HD
ATOM    168  H   UNK A   1       0.026   1.592  -5.840  1.00  0.00    +0.063 HD
ATOM    169  H   UNK A   1      -1.106   3.288  -4.480  1.00  0.00    +0.063 HD
ATOM    170  H   UNK A   1      -2.729   2.536  -1.139  1.00  0.00    +0.043 HD
ATOM    171  H   UNK A   1      -1.298   3.564  -1.421  1.00  0.00    +0.043 HD
ATOM    172  H   UNK A   1      -1.609   0.427  -1.314  1.00  0.00    +0.063 HD
ATOM    173  H   UNK A   1       0.310  -2.299  -3.115  1.00  0.00    +0.058 HD
ATOM    174  H   UNK A   1      -0.016  -1.876  -5.400  1.00  0.00    +0.028 HD
ATOM    175  H   UNK A   1       1.545  -1.252  -4.773  1.00  0.00    +0.028 HD
ATOM    176  H   UNK A   1       0.811  -0.564  -6.224  1.00  0.00    +0.028 HD
ENDROOT
TORSDOF 0