MODEL 1
REMARK VINA RESULT:      -6.1      0.000      0.000
REMARK  Generated by RDKit with Gasteiger charges
REMARK  --------------------------------------------------
ROOT
ATOM      1  N   UNK A   1      -3.920  18.835   1.878  1.00  0.00    -0.131 N 
ATOM      2  C   UNK A   1      -3.847  18.709   0.409  1.00  0.00    +0.121 C 
ATOM      3  C   UNK A   1      -3.474  20.092  -0.129  1.00  0.00    -0.037 C 
ATOM      4  C   UNK A   1      -2.750  17.681   0.078  1.00  0.00    +0.262 C 
ATOM      5  O   UNK A   1      -1.556  18.006   0.173  1.00  0.00    -0.271 OA
ATOM      6  N   UNK A   1      -3.159  16.421  -0.113  1.00  0.00    -0.236 N 
ATOM      7  C   UNK A   1      -4.191  16.059  -1.149  1.00  0.00    +0.143 C 
ATOM      8  C   UNK A   1      -5.646  15.818  -0.590  1.00  0.00    +0.025 C 
ATOM      9  S   UNK A   1      -5.824  14.595   0.824  1.00  0.00    -0.154 S 
ATOM     10  C   UNK A   1      -4.275  16.954  -2.439  1.00  0.00    +0.267 C 
ATOM     11  O   UNK A   1      -4.330  18.183  -2.390  1.00  0.00    -0.270 OA
ATOM     12  N   UNK A   1      -4.290  16.217  -3.571  1.00  0.00    -0.235 N 
ATOM     13  C   UNK A   1      -5.062  16.831  -4.712  1.00  0.00    +0.143 C 
ATOM     14  C   UNK A   1      -4.218  17.862  -5.503  1.00  0.00    +0.058 C 
ATOM     15  C   UNK A   1      -2.854  17.413  -6.034  1.00  0.00    +0.220 C 
ATOM     16  O   UNK A   1      -2.166  18.108  -6.793  1.00  0.00    -0.275 OA
ATOM     17  N   UNK A   1      -2.405  16.191  -5.597  1.00  0.00    -0.370 N 
ATOM     18  C   UNK A   1      -5.555  15.739  -5.725  1.00  0.00    +0.267 C 
ATOM     19  O   UNK A   1      -4.750  14.970  -6.266  1.00  0.00    -0.270 OA
ATOM     20  N   UNK A   1      -6.877  15.818  -5.966  1.00  0.00    -0.233 N 
ATOM     21  C   UNK A   1      -7.562  14.566  -6.469  1.00  0.00    +0.160 C 
ATOM     22  C   UNK A   1      -7.341  13.289  -5.591  1.00  0.00    +0.083 C 
ATOM     23  C   UNK A   1      -7.328  13.501  -4.079  1.00  0.00    -0.036 C 
ATOM     24  O   UNK A   1      -6.084  12.656  -5.978  1.00  0.00    -0.391 OA
ATOM     25  C   UNK A   1      -9.093  14.802  -6.856  1.00  0.00    +0.269 C 
ATOM     26  O   UNK A   1      -9.368  15.305  -7.957  1.00  0.00    -0.270 OA
ATOM     27  N   UNK A   1      -9.972  14.359  -5.927  1.00  0.00    -0.236 N 
ATOM     28  C   UNK A   1     -11.398  14.149  -6.343  1.00  0.00    +0.138 C 
ATOM     29  C   UNK A   1     -11.667  12.971  -7.321  1.00  0.00    +0.006 C 
ATOM     30  C   UNK A   1     -10.756  11.766  -7.335  1.00  0.00    -0.020 C 
ATOM     31  C   UNK A   1      -9.553  11.679  -8.011  1.00  0.00    +0.005 C 
ATOM     32  N   UNK A   1      -8.922  10.540  -7.604  1.00  0.00    -0.361 N 
ATOM     33  C   UNK A   1      -9.781   9.749  -6.876  1.00  0.00    +0.046 C 
ATOM     34  C   UNK A   1      -9.585   8.485  -6.300  1.00  0.00    -0.038 C 
ATOM     35  C   UNK A   1     -10.587   7.994  -5.457  1.00  0.00    -0.060 C 
ATOM     36  C   UNK A   1     -11.724   8.751  -5.185  1.00  0.00    -0.062 C 
ATOM     37  C   UNK A   1     -11.905  10.006  -5.779  1.00  0.00    -0.053 C 
ATOM     38  C   UNK A   1     -10.925  10.519  -6.649  1.00  0.00    +0.003 C 
ATOM     39  C   UNK A   1     -12.496  14.237  -5.189  1.00  0.00    +0.267 C 
ATOM     40  O   UNK A   1     -13.166  15.281  -5.116  1.00  0.00    -0.270 OA
ATOM     41  N   UNK A   1     -12.691  13.110  -4.457  1.00  0.00    -0.236 N 
ATOM     42  C   UNK A   1     -13.689  13.211  -3.299  1.00  0.00    +0.138 C 
ATOM     43  C   UNK A   1     -15.156  13.333  -3.804  1.00  0.00    +0.004 C 
ATOM     44  C   UNK A   1     -15.753  12.147  -4.545  1.00  0.00    -0.045 C 
ATOM     45  C   UNK A   1     -16.419  11.134  -3.842  1.00  0.00    -0.059 C 
ATOM     46  C   UNK A   1     -16.956  10.036  -4.516  1.00  0.00    -0.062 C 
ATOM     47  C   UNK A   1     -16.825   9.934  -5.901  1.00  0.00    -0.062 C 
ATOM     48  C   UNK A   1     -16.148  10.927  -6.609  1.00  0.00    -0.062 C 
ATOM     49  C   UNK A   1     -15.618  12.028  -5.933  1.00  0.00    -0.059 C 
ATOM     50  C   UNK A   1     -13.628  12.050  -2.196  1.00  0.00    +0.267 C 
ATOM     51  O   UNK A   1     -13.108  10.956  -2.422  1.00  0.00    -0.270 OA
ATOM     52  N   UNK A   1     -14.277  12.416  -1.049  1.00  0.00    -0.235 N 
ATOM     53  C   UNK A   1     -14.186  11.464   0.143  1.00  0.00    +0.143 C 
ATOM     54  C   UNK A   1     -13.051  11.924   1.138  1.00  0.00    +0.027 C 
ATOM     55  S   UNK A   1     -12.432  10.580   2.281  1.00  0.00    -0.140 S 
ATOM     56  C   UNK A   1     -15.641  11.283   0.801  1.00  0.00    +0.267 C 
ATOM     57  O   UNK A   1     -16.367  10.345   0.448  1.00  0.00    -0.270 OA
ATOM     58  N   UNK A   1     -15.961  12.229   1.709  1.00  0.00    -0.236 N 
ATOM     59  C   UNK A   1     -17.307  12.206   2.364  1.00  0.00    +0.135 C 
ATOM     60  C   UNK A   1     -18.516  12.259   1.359  1.00  0.00    -0.013 C 
ATOM     61  C   UNK A   1     -18.262  13.210   0.175  1.00  0.00    -0.060 C 
ATOM     62  C   UNK A   1     -19.811  12.708   2.091  1.00  0.00    -0.051 C 
ATOM     63  C   UNK A   1     -21.080  12.506   1.271  1.00  0.00    -0.065 C 
ATOM     64  C   UNK A   1     -17.545  11.154   3.522  1.00  0.00    +0.248 C 
ATOM     65  O   UNK A   1     -18.432  10.294   3.485  1.00  0.00    -0.272 OA
ATOM     66  N   UNK A   1     -16.753  11.397   4.665  1.00  0.00    -0.329 N 
ATOM     67  C   UNK A   1     -15.372  10.958   4.436  1.00  0.00    +0.021 C 
ATOM     68  C   UNK A   1     -15.089   9.840   5.450  1.00  0.00    -0.033 C 
ATOM     69  C   UNK A   1     -16.445   9.540   6.079  1.00  0.00    -0.022 C 
ATOM     70  C   UNK A   1     -17.092  10.918   6.031  1.00  0.00    +0.113 C 
ATOM     71  C   UNK A   1     -18.480  11.059   6.781  1.00  0.00    +0.264 C 
ATOM     72  O   UNK A   1     -19.504  11.500   6.254  1.00  0.00    -0.271 OA
ATOM     73  N   UNK A   1     -18.438  10.642   8.071  1.00  0.00    -0.236 N 
ATOM     74  C   UNK A   1     -17.693  11.588   8.972  1.00  0.00    +0.134 C 
ATOM     75  C   UNK A   1     -18.718  12.205   9.963  1.00  0.00    -0.019 C 
ATOM     76  C   UNK A   1     -18.335  13.552  10.619  1.00  0.00    -0.045 C 
ATOM     77  C   UNK A   1     -18.205  14.684   9.599  1.00  0.00    -0.063 C 
ATOM     78  C   UNK A   1     -17.085  13.477  11.492  1.00  0.00    -0.063 C 
ATOM     79  C   UNK A   1     -16.556  10.837   9.754  1.00  0.00    +0.266 C 
ATOM     80  O   UNK A   1     -16.797  10.186  10.778  1.00  0.00    -0.270 OA
ATOM     81  N   UNK A   1     -15.357  11.044   9.184  1.00  0.00    -0.234 N 
ATOM     82  C   UNK A   1     -14.106  10.570   9.867  1.00  0.00    +0.157 C 
ATOM     83  C   UNK A   1     -13.988   9.025   9.886  1.00  0.00    +0.075 C 
ATOM     84  O   UNK A   1     -14.839   8.440  10.901  1.00  0.00    -0.394 OA
ATOM     85  C   UNK A   1     -12.837  11.296   9.206  1.00  0.00    +0.269 C 
ATOM     86  O   UNK A   1     -12.667  12.507   9.383  1.00  0.00    -0.270 OA
ATOM     87  N   UNK A   1     -12.020  10.448   8.545  1.00  0.00    -0.235 N 
ATOM     88  C   UNK A   1     -10.789  10.965   7.849  1.00  0.00    +0.143 C 
ATOM     89  C   UNK A   1     -11.069  11.682   6.458  1.00  0.00    +0.027 C 
ATOM     90  S   UNK A   1     -11.170  10.445   5.038  1.00  0.00    -0.140 S 
ATOM     91  C   UNK A   1      -9.748  11.712   8.755  1.00  0.00    +0.267 C 
ATOM     92  O   UNK A   1      -9.316  12.836   8.496  1.00  0.00    -0.270 OA
ATOM     93  N   UNK A   1      -9.292  10.926   9.757  1.00  0.00    -0.238 N 
ATOM     94  C   UNK A   1      -8.349  11.591  10.672  1.00  0.00    +0.140 C 
ATOM     95  C   UNK A   1      -8.363  10.785  11.959  1.00  0.00    +0.325 C 
ATOM     96  O   UNK A   1      -7.546  10.881  12.873  1.00  0.00    -0.250 OA
ATOM     97  O   UNK A   1      -9.414   9.925  12.013  1.00  0.00    -0.480 OA
ATOM     98  C   UNK A   1      -7.732  10.545   1.792  1.00  0.00    -0.059 C 
ATOM     99  C   UNK A   1      -7.312  11.771   1.281  1.00  0.00    -0.058 C 
ATOM    100  C   UNK A   1      -8.077  12.924   1.465  1.00  0.00    -0.038 C 
ATOM    101  C   UNK A   1      -7.660  14.228   0.760  1.00  0.00    +0.019 C 
ATOM    102  C   UNK A   1      -9.309  12.783   2.176  1.00  0.00    -0.053 C 
ATOM    103  C   UNK A   1      -9.776  11.534   2.713  1.00  0.00    -0.022 C 
ATOM    104  C   UNK A   1     -11.180  11.480   3.406  1.00  0.00    +0.076 C 
ATOM    105  C   UNK A   1      -8.954  10.396   2.480  1.00  0.00    -0.046 C 
ATOM    106  C   UNK A   1      -9.288   8.994   2.917  1.00  0.00    -0.039 C 
ATOM    107  H   UNK A   1      -4.827  18.430   0.030  1.00  0.00    +0.060 HD
ATOM    108  H   UNK A   1      -4.287  20.808   0.044  1.00  0.00    +0.025 HD
ATOM    109  H   UNK A   1      -2.573  20.489   0.354  1.00  0.00    +0.025 HD
ATOM    110  H   UNK A   1      -3.270  20.067  -1.202  1.00  0.00    +0.025 HD
ATOM    111  H   UNK A   1      -3.872  15.065  -1.506  1.00  0.00    +0.067 HD
ATOM    112  H   UNK A   1      -6.272  15.447  -1.410  1.00  0.00    +0.041 HD
ATOM    113  H   UNK A   1      -6.093  16.757  -0.248  1.00  0.00    +0.041 HD
ATOM    114  H   UNK A   1      -5.954  17.352  -4.330  1.00  0.00    +0.066 HD
ATOM    115  H   UNK A   1      -4.792  18.202  -6.375  1.00  0.00    +0.039 HD
ATOM    116  H   UNK A   1      -4.028  18.741  -4.877  1.00  0.00    +0.039 HD
ATOM    117  H   UNK A   1      -3.129  15.503  -5.869  1.00  0.00    +0.159 HD
ATOM    118  H   UNK A   1      -2.672  16.134  -4.595  1.00  0.00    +0.159 HD
ATOM    119  H   UNK A   1      -7.117  14.321  -7.448  1.00  0.00    +0.069 HD
ATOM    120  H   UNK A   1      -8.104  12.541  -5.814  1.00  0.00    +0.063 HD
ATOM    121  H   UNK A   1      -7.297  12.532  -3.568  1.00  0.00    +0.026 HD
ATOM    122  H   UNK A   1      -6.436  14.038  -3.749  1.00  0.00    +0.026 HD
ATOM    123  H   UNK A   1      -8.217  14.036  -3.733  1.00  0.00    +0.026 HD
ATOM    124  H   UNK A   1      -5.492  13.448  -5.977  1.00  0.00    +0.211 HD
ATOM    125  H   UNK A   1     -11.682  15.038  -6.936  1.00  0.00    +0.066 HD
ATOM    126  H   UNK A   1     -11.622  13.386  -8.341  1.00  0.00    +0.034 HD
ATOM    127  H   UNK A   1     -12.704  12.626  -7.223  1.00  0.00    +0.034 HD
ATOM    128  H   UNK A   1      -9.022  12.448  -8.558  1.00  0.00    +0.082 HD
ATOM    129  H   UNK A   1      -7.929  10.396  -7.675  1.00  0.00    +0.166 HD
ATOM    130  H   UNK A   1      -8.657   7.947  -6.438  1.00  0.00    +0.064 HD
ATOM    131  H   UNK A   1     -10.439   7.061  -4.925  1.00  0.00    +0.062 HD
ATOM    132  H   UNK A   1     -12.447   8.441  -4.433  1.00  0.00    +0.062 HD
ATOM    133  H   UNK A   1     -12.741  10.634  -5.467  1.00  0.00    +0.063 HD
ATOM    134  H   UNK A   1     -13.453  14.132  -2.742  1.00  0.00    +0.066 HD
ATOM    135  H   UNK A   1     -15.264  14.214  -4.447  1.00  0.00    +0.034 HD
ATOM    136  H   UNK A   1     -15.815  13.552  -2.951  1.00  0.00    +0.034 HD
ATOM    137  H   UNK A   1     -16.451  11.186  -2.749  1.00  0.00    +0.063 HD
ATOM    138  H   UNK A   1     -17.418   9.251  -3.928  1.00  0.00    +0.062 HD
ATOM    139  H   UNK A   1     -17.200   9.058  -6.413  1.00  0.00    +0.062 HD
ATOM    140  H   UNK A   1     -15.972  10.834  -7.674  1.00  0.00    +0.062 HD
ATOM    141  H   UNK A   1     -15.026  12.780  -6.454  1.00  0.00    +0.063 HD
ATOM    142  H   UNK A   1     -13.925  10.450  -0.195  1.00  0.00    +0.067 HD
ATOM    143  H   UNK A   1     -12.178  12.254   0.563  1.00  0.00    +0.041 HD
ATOM    144  H   UNK A   1     -13.382  12.765   1.755  1.00  0.00    +0.041 HD
ATOM    145  H   UNK A   1     -17.366  13.167   2.907  1.00  0.00    +0.066 HD
ATOM    146  H   UNK A   1     -18.687  11.252   0.958  1.00  0.00    +0.033 HD
ATOM    147  H   UNK A   1     -18.069  14.231   0.524  1.00  0.00    +0.023 HD
ATOM    148  H   UNK A   1     -19.118  13.243  -0.505  1.00  0.00    +0.023 HD
ATOM    149  H   UNK A   1     -17.412  12.895  -0.435  1.00  0.00    +0.023 HD
ATOM    150  H   UNK A   1     -19.733  13.765   2.374  1.00  0.00    +0.027 HD
ATOM    151  H   UNK A   1     -19.942  12.155   3.026  1.00  0.00    +0.027 HD
ATOM    152  H   UNK A   1     -21.116  13.171   0.404  1.00  0.00    +0.023 HD
ATOM    153  H   UNK A   1     -21.161  11.472   0.923  1.00  0.00    +0.023 HD
ATOM    154  H   UNK A   1     -21.960  12.724   1.885  1.00  0.00    +0.023 HD
ATOM    155  H   UNK A   1     -14.703  11.809   4.587  1.00  0.00    +0.049 HD
ATOM    156  H   UNK A   1     -15.236  10.544   3.437  1.00  0.00    +0.049 HD
ATOM    157  H   UNK A   1     -14.643   8.958   4.983  1.00  0.00    +0.029 HD
ATOM    158  H   UNK A   1     -14.387  10.201   6.212  1.00  0.00    +0.029 HD
ATOM    159  H   UNK A   1     -17.006   8.823   5.469  1.00  0.00    +0.029 HD
ATOM    160  H   UNK A   1     -16.345   9.122   7.084  1.00  0.00    +0.029 HD
ATOM    161  H   UNK A   1     -16.457  11.593   6.623  1.00  0.00    +0.064 HD
ATOM    162  H   UNK A   1     -17.240  12.420   8.419  1.00  0.00    +0.066 HD
ATOM    163  H   UNK A   1     -19.669  12.374   9.435  1.00  0.00    +0.030 HD
ATOM    164  H   UNK A   1     -18.953  11.485  10.757  1.00  0.00    +0.030 HD
ATOM    165  H   UNK A   1     -19.170  13.816  11.282  1.00  0.00    +0.030 HD
ATOM    166  H   UNK A   1     -18.108  15.648  10.110  1.00  0.00    +0.023 HD
ATOM    167  H   UNK A   1     -17.325  14.564   8.960  1.00  0.00    +0.023 HD
ATOM    168  H   UNK A   1     -19.091  14.736   8.958  1.00  0.00    +0.023 HD
ATOM    169  H   UNK A   1     -17.158  12.656  12.213  1.00  0.00    +0.023 HD
ATOM    170  H   UNK A   1     -16.178  13.341  10.896  1.00  0.00    +0.023 HD
ATOM    171  H   UNK A   1     -16.961  14.406  12.061  1.00  0.00    +0.023 HD
ATOM    172  H   UNK A   1     -14.101  10.912  10.913  1.00  0.00    +0.068 HD
ATOM    173  H   UNK A   1     -12.975   8.699  10.137  1.00  0.00    +0.059 HD
ATOM    174  H   UNK A   1     -14.267   8.584   8.923  1.00  0.00    +0.059 HD
ATOM    175  H   UNK A   1     -15.628   9.035  10.821  1.00  0.00    +0.210 HD
ATOM    176  H   UNK A   1     -10.216  10.064   7.568  1.00  0.00    +0.067 HD
ATOM    177  H   UNK A   1     -12.005  12.248   6.487  1.00  0.00    +0.041 HD
ATOM    178  H   UNK A   1     -10.249  12.360   6.207  1.00  0.00    +0.041 HD
ATOM    179  H   UNK A   1      -7.329  11.586  10.278  1.00  0.00    +0.064 HD
ATOM    180  H   UNK A   1      -8.639  12.614  10.938  1.00  0.00    +0.064 HD
ATOM    181  H   UNK A   1      -9.865  10.098  11.121  1.00  0.00    +0.296 HD
ATOM    182  H   UNK A   1      -7.107   9.676   1.603  1.00  0.00    +0.063 HD
ATOM    183  H   UNK A   1      -6.399  11.810   0.694  1.00  0.00    +0.063 HD
ATOM    184  H   UNK A   1      -7.971  14.158  -0.288  1.00  0.00    +0.043 HD
ATOM    185  H   UNK A   1      -8.171  15.076   1.227  1.00  0.00    +0.043 HD
ATOM    186  H   UNK A   1      -9.956  13.656   2.268  1.00  0.00    +0.063 HD
ATOM    187  H   UNK A   1     -11.565  12.474   3.649  1.00  0.00    +0.058 HD
ATOM    188  H   UNK A   1     -10.337   8.741   2.764  1.00  0.00    +0.028 HD
ATOM    189  H   UNK A   1      -9.007   8.845   3.964  1.00  0.00    +0.028 HD
ATOM    190  H   UNK A   1      -8.729   8.257   2.325  1.00  0.00    +0.028 HD
ENDROOT
TORSDOF 0
ENDMDL
MODEL 2
REMARK VINA RESULT:      -5.9      7.667     15.054
REMARK  Generated by RDKit with Gasteiger charges
REMARK  --------------------------------------------------
ROOT
ATOM      1  N   UNK A   1     -11.424  12.563   3.571  1.00  0.00    -0.131 N 
ATOM      2  C   UNK A   1     -10.010  12.168   3.409  1.00  0.00    +0.121 C 
ATOM      3  C   UNK A   1      -9.580  11.533   4.733  1.00  0.00    -0.037 C 
ATOM      4  C   UNK A   1      -9.936  11.144   2.262  1.00  0.00    +0.262 C 
ATOM      5  O   UNK A   1     -10.306   9.975   2.459  1.00  0.00    -0.271 OA
ATOM      6  N   UNK A   1      -9.649  11.633   1.049  1.00  0.00    -0.236 N 
ATOM      7  C   UNK A   1      -8.400  12.432   0.780  1.00  0.00    +0.143 C 
ATOM      8  C   UNK A   1      -8.607  13.994   0.709  1.00  0.00    +0.025 C 
ATOM      9  S   UNK A   1      -9.935  14.625  -0.460  1.00  0.00    -0.154 S 
ATOM     10  C   UNK A   1      -7.131  12.118   1.653  1.00  0.00    +0.267 C 
ATOM     11  O   UNK A   1      -7.172  12.049   2.882  1.00  0.00    -0.270 OA
ATOM     12  N   UNK A   1      -6.022  11.952   0.900  1.00  0.00    -0.235 N 
ATOM     13  C   UNK A   1      -4.737  12.369   1.570  1.00  0.00    +0.143 C 
ATOM     14  C   UNK A   1      -4.168  11.259   2.488  1.00  0.00    +0.058 C 
ATOM     15  C   UNK A   1      -3.964   9.866   1.885  1.00  0.00    +0.220 C 
ATOM     16  O   UNK A   1      -3.388   8.951   2.486  1.00  0.00    -0.275 OA
ATOM     17  N   UNK A   1      -4.486   9.666   0.630  1.00  0.00    -0.370 N 
ATOM     18  C   UNK A   1      -3.631  12.733   0.518  1.00  0.00    +0.267 C 
ATOM     19  O   UNK A   1      -3.287  11.913  -0.345  1.00  0.00    -0.270 OA
ATOM     20  N   UNK A   1      -3.092  13.947   0.733  1.00  0.00    -0.233 N 
ATOM     21  C   UNK A   1      -2.438  14.630  -0.447  1.00  0.00    +0.160 C 
ATOM     22  C   UNK A   1      -3.336  14.758  -1.724  1.00  0.00    +0.083 C 
ATOM     23  C   UNK A   1      -4.811  15.070  -1.483  1.00  0.00    -0.036 C 
ATOM     24  O   UNK A   1      -3.246  13.522  -2.495  1.00  0.00    -0.391 OA
ATOM     25  C   UNK A   1      -1.709  15.995  -0.056  1.00  0.00    +0.269 C 
ATOM     26  O   UNK A   1      -0.577  15.953   0.452  1.00  0.00    -0.270 OA
ATOM     27  N   UNK A   1      -2.407  17.108  -0.383  1.00  0.00    -0.236 N 
ATOM     28  C   UNK A   1      -1.672  18.414  -0.447  1.00  0.00    +0.138 C 
ATOM     29  C   UNK A   1      -0.651  18.578  -1.608  1.00  0.00    +0.006 C 
ATOM     30  C   UNK A   1      -0.842  17.825  -2.904  1.00  0.00    -0.020 C 
ATOM     31  C   UNK A   1      -0.461  16.515  -3.134  1.00  0.00    +0.005 C 
ATOM     32  N   UNK A   1      -0.997  16.124  -4.326  1.00  0.00    -0.361 N 
ATOM     33  C   UNK A   1      -1.503  17.208  -5.006  1.00  0.00    +0.046 C 
ATOM     34  C   UNK A   1      -2.101  17.289  -6.271  1.00  0.00    -0.038 C 
ATOM     35  C   UNK A   1      -2.687  18.506  -6.634  1.00  0.00    -0.060 C 
ATOM     36  C   UNK A   1      -2.694  19.586  -5.754  1.00  0.00    -0.062 C 
ATOM     37  C   UNK A   1      -2.081  19.486  -4.500  1.00  0.00    -0.053 C 
ATOM     38  C   UNK A   1      -1.463  18.282  -4.112  1.00  0.00    +0.003 C 
ATOM     39  C   UNK A   1      -2.542  19.732  -0.219  1.00  0.00    +0.267 C 
ATOM     40  O   UNK A   1      -2.464  20.283   0.893  1.00  0.00    -0.270 OA
ATOM     41  N   UNK A   1      -3.202  20.212  -1.303  1.00  0.00    -0.236 N 
ATOM     42  C   UNK A   1      -4.099  21.433  -1.073  1.00  0.00    +0.138 C 
ATOM     43  C   UNK A   1      -3.269  22.722  -0.803  1.00  0.00    +0.004 C 
ATOM     44  C   UNK A   1      -2.404  23.258  -1.933  1.00  0.00    -0.045 C 
ATOM     45  C   UNK A   1      -2.929  24.174  -2.854  1.00  0.00    -0.059 C 
ATOM     46  C   UNK A   1      -2.143  24.658  -3.901  1.00  0.00    -0.062 C 
ATOM     47  C   UNK A   1      -0.825  24.224  -4.044  1.00  0.00    -0.062 C 
ATOM     48  C   UNK A   1      -0.298  23.298  -3.144  1.00  0.00    -0.062 C 
ATOM     49  C   UNK A   1      -1.084  22.821  -2.093  1.00  0.00    -0.059 C 
ATOM     50  C   UNK A   1      -5.180  21.755  -2.210  1.00  0.00    +0.267 C 
ATOM     51  O   UNK A   1      -5.074  21.319  -3.359  1.00  0.00    -0.270 OA
ATOM     52  N   UNK A   1      -6.148  22.606  -1.755  1.00  0.00    -0.235 N 
ATOM     53  C   UNK A   1      -7.324  22.897  -2.686  1.00  0.00    +0.143 C 
ATOM     54  C   UNK A   1      -8.556  21.977  -2.331  1.00  0.00    +0.027 C 
ATOM     55  S   UNK A   1      -9.804  21.789  -3.711  1.00  0.00    -0.140 S 
ATOM     56  C   UNK A   1      -7.626  24.475  -2.697  1.00  0.00    +0.267 C 
ATOM     57  O   UNK A   1      -7.111  25.198  -3.558  1.00  0.00    -0.270 OA
ATOM     58  N   UNK A   1      -8.441  24.889  -1.704  1.00  0.00    -0.236 N 
ATOM     59  C   UNK A   1      -8.768  26.345  -1.569  1.00  0.00    +0.135 C 
ATOM     60  C   UNK A   1      -7.511  27.277  -1.407  1.00  0.00    -0.013 C 
ATOM     61  C   UNK A   1      -6.422  26.654  -0.512  1.00  0.00    -0.060 C 
ATOM     62  C   UNK A   1      -7.926  28.649  -0.806  1.00  0.00    -0.051 C 
ATOM     63  C   UNK A   1      -6.834  29.708  -0.887  1.00  0.00    -0.065 C 
ATOM     64  C   UNK A   1      -9.833  26.956  -2.566  1.00  0.00    +0.248 C 
ATOM     65  O   UNK A   1      -9.588  27.900  -3.326  1.00  0.00    -0.272 OA
ATOM     66  N   UNK A   1     -11.130  26.427  -2.387  1.00  0.00    -0.329 N 
ATOM     67  C   UNK A   1     -11.223  25.087  -2.976  1.00  0.00    +0.021 C 
ATOM     68  C   UNK A   1     -12.270  25.169  -4.097  1.00  0.00    -0.033 C 
ATOM     69  C   UNK A   1     -12.567  26.658  -4.237  1.00  0.00    -0.022 C 
ATOM     70  C   UNK A   1     -12.377  27.122  -2.799  1.00  0.00    +0.113 C 
ATOM     71  C   UNK A   1     -12.788  28.621  -2.494  1.00  0.00    +0.264 C 
ATOM     72  O   UNK A   1     -12.040  29.442  -1.956  1.00  0.00    -0.271 OA
ATOM     73  N   UNK A   1     -14.050  28.924  -2.888  1.00  0.00    -0.236 N 
ATOM     74  C   UNK A   1     -15.104  28.306  -2.009  1.00  0.00    +0.134 C 
ATOM     75  C   UNK A   1     -15.834  29.459  -1.266  1.00  0.00    -0.019 C 
ATOM     76  C   UNK A   1     -16.569  29.092   0.044  1.00  0.00    -0.045 C 
ATOM     77  C   UNK A   1     -15.612  28.608   1.136  1.00  0.00    -0.063 C 
ATOM     78  C   UNK A   1     -17.706  28.093  -0.146  1.00  0.00    -0.063 C 
ATOM     79  C   UNK A   1     -16.123  27.469  -2.862  1.00  0.00    +0.266 C 
ATOM     80  O   UNK A   1     -17.060  28.009  -3.463  1.00  0.00    -0.270 OA
ATOM     81  N   UNK A   1     -15.847  26.156  -2.797  1.00  0.00    -0.234 N 
ATOM     82  C   UNK A   1     -16.798  25.156  -3.389  1.00  0.00    +0.157 C 
ATOM     83  C   UNK A   1     -16.835  25.215  -4.937  1.00  0.00    +0.075 C 
ATOM     84  O   UNK A   1     -17.623  26.334  -5.407  1.00  0.00    -0.394 OA
ATOM     85  C   UNK A   1     -16.452  23.697  -2.817  1.00  0.00    +0.269 C 
ATOM     86  O   UNK A   1     -16.670  23.441  -1.628  1.00  0.00    -0.270 OA
ATOM     87  N   UNK A   1     -15.993  22.847  -3.761  1.00  0.00    -0.235 N 
ATOM     88  C   UNK A   1     -15.603  21.440  -3.394  1.00  0.00    +0.143 C 
ATOM     89  C   UNK A   1     -14.188  21.312  -2.679  1.00  0.00    +0.027 C 
ATOM     90  S   UNK A   1     -12.777  21.218  -3.925  1.00  0.00    -0.140 S 
ATOM     91  C   UNK A   1     -16.729  20.561  -2.745  1.00  0.00    +0.267 C 
ATOM     92  O   UNK A   1     -16.583  19.960  -1.679  1.00  0.00    -0.270 OA
ATOM     93  N   UNK A   1     -17.805  20.436  -3.556  1.00  0.00    -0.238 N 
ATOM     94  C   UNK A   1     -18.917  19.662  -2.977  1.00  0.00    +0.140 C 
ATOM     95  C   UNK A   1     -20.161  20.060  -3.751  1.00  0.00    +0.325 C 
ATOM     96  O   UNK A   1     -21.239  19.470  -3.725  1.00  0.00    -0.250 OA
ATOM     97  O   UNK A   1     -19.967  21.183  -4.492  1.00  0.00    -0.480 OA
ATOM     98  C   UNK A   1     -10.414  17.136  -4.261  1.00  0.00    -0.059 C 
ATOM     99  C   UNK A   1     -10.020  16.478  -3.097  1.00  0.00    -0.058 C 
ATOM    100  C   UNK A   1     -10.028  17.134  -1.866  1.00  0.00    -0.038 C 
ATOM    101  C   UNK A   1      -9.447  16.426  -0.628  1.00  0.00    +0.019 C 
ATOM    102  C   UNK A   1     -10.435  18.504  -1.859  1.00  0.00    -0.053 C 
ATOM    103  C   UNK A   1     -10.843  19.216  -3.040  1.00  0.00    -0.022 C 
ATOM    104  C   UNK A   1     -11.193  20.739  -2.928  1.00  0.00    +0.076 C 
ATOM    105  C   UNK A   1     -10.800  18.492  -4.264  1.00  0.00    -0.046 C 
ATOM    106  C   UNK A   1     -11.140  19.068  -5.613  1.00  0.00    -0.039 C 
ATOM    107  H   UNK A   1      -9.414  13.059   3.229  1.00  0.00    +0.060 HD
ATOM    108  H   UNK A   1      -9.565  12.280   5.535  1.00  0.00    +0.025 HD
ATOM    109  H   UNK A   1     -10.260  10.730   5.040  1.00  0.00    +0.025 HD
ATOM    110  H   UNK A   1      -8.583  11.091   4.664  1.00  0.00    +0.025 HD
ATOM    111  H   UNK A   1      -8.121  12.150  -0.249  1.00  0.00    +0.067 HD
ATOM    112  H   UNK A   1      -7.663  14.451   0.391  1.00  0.00    +0.041 HD
ATOM    113  H   UNK A   1      -8.841  14.402   1.696  1.00  0.00    +0.041 HD
ATOM    114  H   UNK A   1      -4.905  13.263   2.192  1.00  0.00    +0.066 HD
ATOM    115  H   UNK A   1      -3.189  11.576   2.871  1.00  0.00    +0.039 HD
ATOM    116  H   UNK A   1      -4.826  11.123   3.354  1.00  0.00    +0.039 HD
ATOM    117  H   UNK A   1      -4.051  10.379   0.019  1.00  0.00    +0.159 HD
ATOM    118  H   UNK A   1      -5.399  10.162   0.622  1.00  0.00    +0.159 HD
ATOM    119  H   UNK A   1      -1.587  14.001  -0.758  1.00  0.00    +0.069 HD
ATOM    120  H   UNK A   1      -2.939  15.526  -2.389  1.00  0.00    +0.063 HD
ATOM    121  H   UNK A   1      -5.310  15.264  -2.440  1.00  0.00    +0.026 HD
ATOM    122  H   UNK A   1      -5.341  14.225  -1.039  1.00  0.00    +0.026 HD
ATOM    123  H   UNK A   1      -4.945  15.951  -0.849  1.00  0.00    +0.026 HD
ATOM    124  H   UNK A   1      -3.388  12.864  -1.772  1.00  0.00    +0.211 HD
ATOM    125  H   UNK A   1      -1.034  18.455   0.455  1.00  0.00    +0.066 HD
ATOM    126  H   UNK A   1       0.328  18.254  -1.221  1.00  0.00    +0.034 HD
ATOM    127  H   UNK A   1      -0.506  19.640  -1.838  1.00  0.00    +0.034 HD
ATOM    128  H   UNK A   1      -0.056  15.793  -2.438  1.00  0.00    +0.082 HD
ATOM    129  H   UNK A   1      -1.156  15.163  -4.577  1.00  0.00    +0.166 HD
ATOM    130  H   UNK A   1      -2.179  16.419  -6.909  1.00  0.00    +0.064 HD
ATOM    131  H   UNK A   1      -3.234  18.587  -7.567  1.00  0.00    +0.062 HD
ATOM    132  H   UNK A   1      -3.257  20.492  -5.970  1.00  0.00    +0.062 HD
ATOM    133  H   UNK A   1      -2.194  20.298  -3.779  1.00  0.00    +0.063 HD
ATOM    134  H   UNK A   1      -4.700  21.232  -0.171  1.00  0.00    +0.066 HD
ATOM    135  H   UNK A   1      -2.623  22.582   0.072  1.00  0.00    +0.034 HD
ATOM    136  H   UNK A   1      -3.948  23.531  -0.498  1.00  0.00    +0.034 HD
ATOM    137  H   UNK A   1      -3.985  24.451  -2.777  1.00  0.00    +0.063 HD
ATOM    138  H   UNK A   1      -2.604  25.326  -4.619  1.00  0.00    +0.062 HD
ATOM    139  H   UNK A   1      -0.236  24.564  -4.885  1.00  0.00    +0.062 HD
ATOM    140  H   UNK A   1       0.698  22.893  -3.276  1.00  0.00    +0.062 HD
ATOM    141  H   UNK A   1      -0.718  22.046  -1.420  1.00  0.00    +0.063 HD
ATOM    142  H   UNK A   1      -7.049  22.677  -3.729  1.00  0.00    +0.067 HD
ATOM    143  H   UNK A   1      -8.200  20.965  -2.109  1.00  0.00    +0.041 HD
ATOM    144  H   UNK A   1      -9.085  22.348  -1.448  1.00  0.00    +0.041 HD
ATOM    145  H   UNK A   1      -9.287  26.422  -0.597  1.00  0.00    +0.066 HD
ATOM    146  H   UNK A   1      -7.075  27.459  -2.397  1.00  0.00    +0.033 HD
ATOM    147  H   UNK A   1      -6.812  26.437   0.489  1.00  0.00    +0.023 HD
ATOM    148  H   UNK A   1      -5.563  27.322  -0.400  1.00  0.00    +0.023 HD
ATOM    149  H   UNK A   1      -6.024  25.726  -0.929  1.00  0.00    +0.023 HD
ATOM    150  H   UNK A   1      -8.225  28.522   0.242  1.00  0.00    +0.027 HD
ATOM    151  H   UNK A   1      -8.802  29.050  -1.323  1.00  0.00    +0.027 HD
ATOM    152  H   UNK A   1      -5.985  29.471  -0.239  1.00  0.00    +0.023 HD
ATOM    153  H   UNK A   1      -6.471  29.819  -1.913  1.00  0.00    +0.023 HD
ATOM    154  H   UNK A   1      -7.229  30.677  -0.563  1.00  0.00    +0.023 HD
ATOM    155  H   UNK A   1     -11.530  24.381  -2.200  1.00  0.00    +0.049 HD
ATOM    156  H   UNK A   1     -10.281  24.770  -3.422  1.00  0.00    +0.049 HD
ATOM    157  H   UNK A   1     -11.914  24.726  -5.032  1.00  0.00    +0.029 HD
ATOM    158  H   UNK A   1     -13.175  24.626  -3.799  1.00  0.00    +0.029 HD
ATOM    159  H   UNK A   1     -11.840  27.138  -4.902  1.00  0.00    +0.029 HD
ATOM    160  H   UNK A   1     -13.565  26.837  -4.643  1.00  0.00    +0.029 HD
ATOM    161  H   UNK A   1     -13.104  26.570  -2.184  1.00  0.00    +0.064 HD
ATOM    162  H   UNK A   1     -14.675  27.651  -1.243  1.00  0.00    +0.066 HD
ATOM    163  H   UNK A   1     -15.102  30.238  -1.006  1.00  0.00    +0.030 HD
ATOM    164  H   UNK A   1     -16.549  29.947  -1.940  1.00  0.00    +0.030 HD
ATOM    165  H   UNK A   1     -17.022  30.023   0.410  1.00  0.00    +0.030 HD
ATOM    166  H   UNK A   1     -16.137  28.527   2.094  1.00  0.00    +0.023 HD
ATOM    167  H   UNK A   1     -15.193  27.623   0.909  1.00  0.00    +0.023 HD
ATOM    168  H   UNK A   1     -14.784  29.312   1.270  1.00  0.00    +0.023 HD
ATOM    169  H   UNK A   1     -18.387  28.419  -0.941  1.00  0.00    +0.023 HD
ATOM    170  H   UNK A   1     -17.335  27.093  -0.391  1.00  0.00    +0.023 HD
ATOM    171  H   UNK A   1     -18.294  28.002   0.775  1.00  0.00    +0.023 HD
ATOM    172  H   UNK A   1     -17.818  25.354  -3.028  1.00  0.00    +0.068 HD
ATOM    173  H   UNK A   1     -17.312  24.328  -5.366  1.00  0.00    +0.059 HD
ATOM    174  H   UNK A   1     -15.831  25.310  -5.365  1.00  0.00    +0.059 HD
ATOM    175  H   UNK A   1     -17.367  27.014  -4.732  1.00  0.00    +0.210 HD
ATOM    176  H   UNK A   1     -15.457  20.919  -4.356  1.00  0.00    +0.067 HD
ATOM    177  H   UNK A   1     -14.004  22.162  -2.014  1.00  0.00    +0.041 HD
ATOM    178  H   UNK A   1     -14.137  20.387  -2.098  1.00  0.00    +0.041 HD
ATOM    179  H   UNK A   1     -18.769  18.585  -3.100  1.00  0.00    +0.064 HD
ATOM    180  H   UNK A   1     -19.114  19.892  -1.924  1.00  0.00    +0.064 HD
ATOM    181  H   UNK A   1     -18.995  21.395  -4.289  1.00  0.00    +0.296 HD
ATOM    182  H   UNK A   1     -10.370  16.583  -5.196  1.00  0.00    +0.063 HD
ATOM    183  H   UNK A   1      -9.660  15.456  -3.169  1.00  0.00    +0.063 HD
ATOM    184  H   UNK A   1      -8.355  16.493  -0.686  1.00  0.00    +0.043 HD
ATOM    185  H   UNK A   1      -9.788  16.935   0.279  1.00  0.00    +0.043 HD
ATOM    186  H   UNK A   1     -10.380  19.056  -0.920  1.00  0.00    +0.063 HD
ATOM    187  H   UNK A   1     -11.345  21.059  -1.894  1.00  0.00    +0.058 HD
ATOM    188  H   UNK A   1     -10.748  20.075  -5.754  1.00  0.00    +0.028 HD
ATOM    189  H   UNK A   1     -12.223  19.054  -5.771  1.00  0.00    +0.028 HD
ATOM    190  H   UNK A   1     -10.690  18.472  -6.417  1.00  0.00    +0.028 HD
ENDROOT
TORSDOF 0
ENDMDL
MODEL 3
REMARK VINA RESULT:      -5.5      2.580     13.920
REMARK  Generated by RDKit with Gasteiger charges
REMARK  --------------------------------------------------
ROOT
ATOM      1  N   UNK A   1      -8.958  10.268   9.964  1.00  0.00    -0.131 N 
ATOM      2  C   UNK A   1     -10.413  10.102  10.155  1.00  0.00    +0.121 C 
ATOM      3  C   UNK A   1     -10.594   8.965  11.164  1.00  0.00    -0.037 C 
ATOM      4  C   UNK A   1     -10.968  11.424  10.717  1.00  0.00    +0.262 C 
ATOM      5  O   UNK A   1     -10.780  11.710  11.909  1.00  0.00    -0.271 OA
ATOM      6  N   UNK A   1     -11.466  12.285   9.820  1.00  0.00    -0.236 N 
ATOM      7  C   UNK A   1     -12.573  11.907   8.872  1.00  0.00    +0.143 C 
ATOM      8  C   UNK A   1     -12.110  11.564   7.403  1.00  0.00    +0.025 C 
ATOM      9  S   UNK A   1     -11.039  12.836   6.530  1.00  0.00    -0.154 S 
ATOM     10  C   UNK A   1     -13.608  10.825   9.353  1.00  0.00    +0.267 C 
ATOM     11  O   UNK A   1     -13.263   9.748   9.840  1.00  0.00    -0.270 OA
ATOM     12  N   UNK A   1     -14.886  11.217   9.154  1.00  0.00    -0.235 N 
ATOM     13  C   UNK A   1     -15.854  10.094   8.880  1.00  0.00    +0.143 C 
ATOM     14  C   UNK A   1     -16.359   9.425  10.184  1.00  0.00    +0.058 C 
ATOM     15  C   UNK A   1     -16.963  10.327  11.263  1.00  0.00    +0.220 C 
ATOM     16  O   UNK A   1     -17.520   9.883  12.275  1.00  0.00    -0.275 OA
ATOM     17  N   UNK A   1     -16.830  11.680  11.068  1.00  0.00    -0.370 N 
ATOM     18  C   UNK A   1     -17.109  10.599   8.085  1.00  0.00    +0.267 C 
ATOM     19  O   UNK A   1     -17.809  11.519   8.528  1.00  0.00    -0.270 OA
ATOM     20  N   UNK A   1     -17.342   9.874   6.975  1.00  0.00    -0.233 N 
ATOM     21  C   UNK A   1     -18.144  10.535   5.876  1.00  0.00    +0.160 C 
ATOM     22  C   UNK A   1     -17.600  11.924   5.399  1.00  0.00    +0.083 C 
ATOM     23  C   UNK A   1     -16.082  12.063   5.317  1.00  0.00    -0.036 C 
ATOM     24  O   UNK A   1     -18.111  12.966   6.285  1.00  0.00    -0.391 OA
ATOM     25  C   UNK A   1     -18.485   9.549   4.668  1.00  0.00    +0.269 C 
ATOM     26  O   UNK A   1     -19.435   8.757   4.782  1.00  0.00    -0.270 OA
ATOM     27  N   UNK A   1     -17.704   9.723   3.576  1.00  0.00    -0.236 N 
ATOM     28  C   UNK A   1     -18.179   9.163   2.268  1.00  0.00    +0.138 C 
ATOM     29  C   UNK A   1     -19.418   9.852   1.629  1.00  0.00    +0.006 C 
ATOM     30  C   UNK A   1     -19.711  11.307   1.908  1.00  0.00    -0.020 C 
ATOM     31  C   UNK A   1     -20.371  11.793   3.023  1.00  0.00    +0.005 C 
ATOM     32  N   UNK A   1     -20.244  13.151   3.030  1.00  0.00    -0.361 N 
ATOM     33  C   UNK A   1     -19.742  13.593   1.827  1.00  0.00    +0.046 C 
ATOM     34  C   UNK A   1     -19.488  14.895   1.372  1.00  0.00    -0.038 C 
ATOM     35  C   UNK A   1     -18.804  15.036   0.160  1.00  0.00    -0.060 C 
ATOM     36  C   UNK A   1     -18.373  13.918  -0.550  1.00  0.00    -0.062 C 
ATOM     37  C   UNK A   1     -18.646  12.627  -0.082  1.00  0.00    -0.053 C 
ATOM     38  C   UNK A   1     -19.351  12.451   1.123  1.00  0.00    +0.003 C 
ATOM     39  C   UNK A   1     -17.054   8.825   1.188  1.00  0.00    +0.267 C 
ATOM     40  O   UNK A   1     -16.739   7.632   1.045  1.00  0.00    -0.270 OA
ATOM     41  N   UNK A   1     -16.621   9.862   0.426  1.00  0.00    -0.236 N 
ATOM     42  C   UNK A   1     -15.488   9.560  -0.560  1.00  0.00    +0.138 C 
ATOM     43  C   UNK A   1     -15.970   8.676  -1.747  1.00  0.00    +0.004 C 
ATOM     44  C   UNK A   1     -16.985   9.272  -2.709  1.00  0.00    -0.045 C 
ATOM     45  C   UNK A   1     -16.559   9.988  -3.835  1.00  0.00    -0.059 C 
ATOM     46  C   UNK A   1     -17.487  10.549  -4.714  1.00  0.00    -0.062 C 
ATOM     47  C   UNK A   1     -18.853  10.407  -4.471  1.00  0.00    -0.062 C 
ATOM     48  C   UNK A   1     -19.289   9.711  -3.343  1.00  0.00    -0.062 C 
ATOM     49  C   UNK A   1     -18.358   9.145  -2.469  1.00  0.00    -0.059 C 
ATOM     50  C   UNK A   1     -14.699  10.822  -1.155  1.00  0.00    +0.267 C 
ATOM     51  O   UNK A   1     -15.177  11.958  -1.148  1.00  0.00    -0.270 OA
ATOM     52  N   UNK A   1     -13.507  10.449  -1.712  1.00  0.00    -0.235 N 
ATOM     53  C   UNK A   1     -12.581  11.562  -2.199  1.00  0.00    +0.143 C 
ATOM     54  C   UNK A   1     -11.488  11.894  -1.110  1.00  0.00    +0.027 C 
ATOM     55  S   UNK A   1     -10.697  13.578  -1.297  1.00  0.00    -0.140 S 
ATOM     56  C   UNK A   1     -12.008  11.189  -3.654  1.00  0.00    +0.267 C 
ATOM     57  O   UNK A   1     -12.588  11.593  -4.669  1.00  0.00    -0.270 OA
ATOM     58  N   UNK A   1     -10.902  10.416  -3.632  1.00  0.00    -0.236 N 
ATOM     59  C   UNK A   1     -10.292   9.955  -4.920  1.00  0.00    +0.135 C 
ATOM     60  C   UNK A   1     -11.271   9.145  -5.846  1.00  0.00    -0.013 C 
ATOM     61  C   UNK A   1     -12.185   8.192  -5.053  1.00  0.00    -0.060 C 
ATOM     62  C   UNK A   1     -10.471   8.316  -6.890  1.00  0.00    -0.051 C 
ATOM     63  C   UNK A   1     -11.334   7.738  -8.004  1.00  0.00    -0.065 C 
ATOM     64  C   UNK A   1      -9.428  10.997  -5.740  1.00  0.00    +0.248 C 
ATOM     65  O   UNK A   1      -9.685  11.326  -6.903  1.00  0.00    -0.272 OA
ATOM     66  N   UNK A   1      -8.249  11.390  -5.071  1.00  0.00    -0.329 N 
ATOM     67  C   UNK A   1      -8.558  12.354  -4.009  1.00  0.00    +0.021 C 
ATOM     68  C   UNK A   1      -7.841  13.662  -4.377  1.00  0.00    -0.033 C 
ATOM     69  C   UNK A   1      -7.324  13.432  -5.792  1.00  0.00    -0.022 C 
ATOM     70  C   UNK A   1      -7.045  11.934  -5.752  1.00  0.00    +0.113 C 
ATOM     71  C   UNK A   1      -6.303  11.333  -7.016  1.00  0.00    +0.264 C 
ATOM     72  O   UNK A   1      -6.723  10.373  -7.666  1.00  0.00    -0.271 OA
ATOM     73  N   UNK A   1      -5.153  11.984  -7.324  1.00  0.00    -0.236 N 
ATOM     74  C   UNK A   1      -4.038  11.697  -6.354  1.00  0.00    +0.134 C 
ATOM     75  C   UNK A   1      -2.943  10.901  -7.116  1.00  0.00    -0.019 C 
ATOM     76  C   UNK A   1      -1.973  10.051  -6.262  1.00  0.00    -0.045 C 
ATOM     77  C   UNK A   1      -2.685   8.919  -5.520  1.00  0.00    -0.063 C 
ATOM     78  C   UNK A   1      -1.127  10.871  -5.292  1.00  0.00    -0.063 C 
ATOM     79  C   UNK A   1      -3.446  13.030  -5.773  1.00  0.00    +0.266 C 
ATOM     80  O   UNK A   1      -2.615  13.697  -6.401  1.00  0.00    -0.270 OA
ATOM     81  N   UNK A   1      -3.931  13.282  -4.546  1.00  0.00    -0.234 N 
ATOM     82  C   UNK A   1      -3.366  14.408  -3.729  1.00  0.00    +0.157 C 
ATOM     83  C   UNK A   1      -3.721  15.800  -4.308  1.00  0.00    +0.075 C 
ATOM     84  O   UNK A   1      -2.891  16.128  -5.448  1.00  0.00    -0.394 OA
ATOM     85  C   UNK A   1      -3.812  14.224  -2.198  1.00  0.00    +0.269 C 
ATOM     86  O   UNK A   1      -3.343  13.293  -1.534  1.00  0.00    -0.270 OA
ATOM     87  N   UNK A   1      -4.648  15.193  -1.764  1.00  0.00    -0.235 N 
ATOM     88  C   UNK A   1      -5.179  15.165  -0.357  1.00  0.00    +0.143 C 
ATOM     89  C   UNK A   1      -6.359  14.127  -0.116  1.00  0.00    +0.027 C 
ATOM     90  S   UNK A   1      -8.037  14.851  -0.576  1.00  0.00    -0.140 S 
ATOM     91  C   UNK A   1      -4.103  15.188   0.786  1.00  0.00    +0.267 C 
ATOM     92  O   UNK A   1      -4.076  14.360   1.699  1.00  0.00    -0.270 OA
ATOM     93  N   UNK A   1      -3.316  16.286   0.720  1.00  0.00    -0.238 N 
ATOM     94  C   UNK A   1      -2.253  16.335   1.738  1.00  0.00    +0.140 C 
ATOM     95  C   UNK A   1      -1.201  17.294   1.210  1.00  0.00    +0.325 C 
ATOM     96  O   UNK A   1      -0.280  17.777   1.866  1.00  0.00    -0.250 OA
ATOM     97  O   UNK A   1      -1.373  17.566  -0.110  1.00  0.00    -0.480 OA
ATOM     98  C   UNK A   1     -11.112  15.661   2.925  1.00  0.00    -0.059 C 
ATOM     99  C   UNK A   1     -11.304  14.687   3.903  1.00  0.00    -0.058 C 
ATOM    100  C   UNK A   1     -10.856  13.380   3.710  1.00  0.00    -0.038 C 
ATOM    101  C   UNK A   1     -11.216  12.297   4.744  1.00  0.00    +0.019 C 
ATOM    102  C   UNK A   1     -10.219  13.085   2.466  1.00  0.00    -0.053 C 
ATOM    103  C   UNK A   1     -10.008  14.063   1.432  1.00  0.00    -0.022 C 
ATOM    104  C   UNK A   1      -9.369  13.610   0.075  1.00  0.00    +0.076 C 
ATOM    105  C   UNK A   1     -10.498  15.374   1.688  1.00  0.00    -0.046 C 
ATOM    106  C   UNK A   1     -10.420  16.522   0.718  1.00  0.00    -0.039 C 
ATOM    107  H   UNK A   1     -10.862   9.814   9.208  1.00  0.00    +0.060 HD
ATOM    108  H   UNK A   1     -10.264   8.011  10.736  1.00  0.00    +0.025 HD
ATOM    109  H   UNK A   1     -10.016   9.138  12.079  1.00  0.00    +0.025 HD
ATOM    110  H   UNK A   1     -11.638   8.857  11.468  1.00  0.00    +0.025 HD
ATOM    111  H   UNK A   1     -13.156  12.836   8.760  1.00  0.00    +0.067 HD
ATOM    112  H   UNK A   1     -13.005  11.426   6.785  1.00  0.00    +0.041 HD
ATOM    113  H   UNK A   1     -11.557  10.621   7.379  1.00  0.00    +0.041 HD
ATOM    114  H   UNK A   1     -15.370   9.315   8.271  1.00  0.00    +0.066 HD
ATOM    115  H   UNK A   1     -17.130   8.685   9.932  1.00  0.00    +0.039 HD
ATOM    116  H   UNK A   1     -15.534   8.884  10.664  1.00  0.00    +0.039 HD
ATOM    117  H   UNK A   1     -17.271  11.885  10.155  1.00  0.00    +0.159 HD
ATOM    118  H   UNK A   1     -15.875  11.817  10.681  1.00  0.00    +0.159 HD
ATOM    119  H   UNK A   1     -19.147  10.746   6.285  1.00  0.00    +0.069 HD
ATOM    120  H   UNK A   1     -18.009  12.173   4.419  1.00  0.00    +0.063 HD
ATOM    121  H   UNK A   1     -15.821  13.021   4.853  1.00  0.00    +0.026 HD
ATOM    122  H   UNK A   1     -15.618  12.077   6.307  1.00  0.00    +0.026 HD
ATOM    123  H   UNK A   1     -15.629  11.266   4.721  1.00  0.00    +0.026 HD
ATOM    124  H   UNK A   1     -17.910  12.553   7.160  1.00  0.00    +0.211 HD
ATOM    125  H   UNK A   1     -18.542   8.141   2.481  1.00  0.00    +0.066 HD
ATOM    126  H   UNK A   1     -20.306   9.300   1.980  1.00  0.00    +0.034 HD
ATOM    127  H   UNK A   1     -19.421   9.695   0.544  1.00  0.00    +0.034 HD
ATOM    128  H   UNK A   1     -20.707  11.257   3.902  1.00  0.00    +0.082 HD
ATOM    129  H   UNK A   1     -20.333  13.716   3.858  1.00  0.00    +0.166 HD
ATOM    130  H   UNK A   1     -19.739  15.756   1.976  1.00  0.00    +0.064 HD
ATOM    131  H   UNK A   1     -18.512  16.021  -0.186  1.00  0.00    +0.062 HD
ATOM    132  H   UNK A   1     -17.729  14.012  -1.422  1.00  0.00    +0.062 HD
ATOM    133  H   UNK A   1     -18.204  11.767  -0.587  1.00  0.00    +0.063 HD
ATOM    134  H   UNK A   1     -14.721   8.990  -0.012  1.00  0.00    +0.066 HD
ATOM    135  H   UNK A   1     -16.381   7.731  -1.374  1.00  0.00    +0.034 HD
ATOM    136  H   UNK A   1     -15.099   8.364  -2.341  1.00  0.00    +0.034 HD
ATOM    137  H   UNK A   1     -15.487  10.157  -3.976  1.00  0.00    +0.063 HD
ATOM    138  H   UNK A   1     -17.114  11.138  -5.544  1.00  0.00    +0.062 HD
ATOM    139  H   UNK A   1     -19.568  10.884  -5.127  1.00  0.00    +0.062 HD
ATOM    140  H   UNK A   1     -20.342   9.649  -3.096  1.00  0.00    +0.062 HD
ATOM    141  H   UNK A   1     -18.672   8.659  -1.547  1.00  0.00    +0.063 HD
ATOM    142  H   UNK A   1     -13.152  12.486  -2.373  1.00  0.00    +0.067 HD
ATOM    143  H   UNK A   1     -11.953  11.889  -0.118  1.00  0.00    +0.041 HD
ATOM    144  H   UNK A   1     -10.690  11.145  -1.110  1.00  0.00    +0.041 HD
ATOM    145  H   UNK A   1      -9.533   9.212  -4.615  1.00  0.00    +0.066 HD
ATOM    146  H   UNK A   1     -11.908   9.852  -6.393  1.00  0.00    +0.033 HD
ATOM    147  H   UNK A   1     -11.596   7.472  -4.475  1.00  0.00    +0.023 HD
ATOM    148  H   UNK A   1     -12.849   7.628  -5.715  1.00  0.00    +0.023 HD
ATOM    149  H   UNK A   1     -12.841   8.726  -4.362  1.00  0.00    +0.023 HD
ATOM    150  H   UNK A   1      -9.939   7.499  -6.388  1.00  0.00    +0.027 HD
ATOM    151  H   UNK A   1      -9.701   8.930  -7.366  1.00  0.00    +0.027 HD
ATOM    152  H   UNK A   1     -12.014   6.964  -7.635  1.00  0.00    +0.023 HD
ATOM    153  H   UNK A   1     -11.924   8.521  -8.490  1.00  0.00    +0.023 HD
ATOM    154  H   UNK A   1     -10.698   7.273  -8.766  1.00  0.00    +0.023 HD
ATOM    155  H   UNK A   1      -8.195  11.959  -3.057  1.00  0.00    +0.049 HD
ATOM    156  H   UNK A   1      -9.625  12.566  -3.947  1.00  0.00    +0.049 HD
ATOM    157  H   UNK A   1      -8.502  14.531  -4.312  1.00  0.00    +0.029 HD
ATOM    158  H   UNK A   1      -7.005  13.832  -3.688  1.00  0.00    +0.029 HD
ATOM    159  H   UNK A   1      -8.098  13.666  -6.532  1.00  0.00    +0.029 HD
ATOM    160  H   UNK A   1      -6.449  14.049  -6.012  1.00  0.00    +0.029 HD
ATOM    161  H   UNK A   1      -6.298  11.767  -4.963  1.00  0.00    +0.064 HD
ATOM    162  H   UNK A   1      -4.366  11.070  -5.517  1.00  0.00    +0.066 HD
ATOM    163  H   UNK A   1      -3.427  10.208  -7.821  1.00  0.00    +0.030 HD
ATOM    164  H   UNK A   1      -2.350  11.582  -7.741  1.00  0.00    +0.030 HD
ATOM    165  H   UNK A   1      -1.278   9.579  -6.969  1.00  0.00    +0.030 HD
ATOM    166  H   UNK A   1      -1.954   8.238  -5.071  1.00  0.00    +0.023 HD
ATOM    167  H   UNK A   1      -3.322   9.293  -4.712  1.00  0.00    +0.023 HD
ATOM    168  H   UNK A   1      -3.308   8.334  -6.205  1.00  0.00    +0.023 HD
ATOM    169  H   UNK A   1      -0.627  11.699  -5.809  1.00  0.00    +0.023 HD
ATOM    170  H   UNK A   1      -1.724  11.280  -4.473  1.00  0.00    +0.023 HD
ATOM    171  H   UNK A   1      -0.347  10.246  -4.843  1.00  0.00    +0.023 HD
ATOM    172  H   UNK A   1      -2.268  14.334  -3.702  1.00  0.00    +0.068 HD
ATOM    173  H   UNK A   1      -3.542  16.599  -3.583  1.00  0.00    +0.059 HD
ATOM    174  H   UNK A   1      -4.767  15.852  -4.631  1.00  0.00    +0.059 HD
ATOM    175  H   UNK A   1      -2.835  15.236  -5.877  1.00  0.00    +0.210 HD
ATOM    176  H   UNK A   1      -5.663  16.147  -0.210  1.00  0.00    +0.067 HD
ATOM    177  H   UNK A   1      -6.206  13.214  -0.701  1.00  0.00    +0.041 HD
ATOM    178  H   UNK A   1      -6.425  13.864   0.944  1.00  0.00    +0.041 HD
ATOM    179  H   UNK A   1      -2.623  16.725   2.692  1.00  0.00    +0.064 HD
ATOM    180  H   UNK A   1      -1.751  15.374   1.899  1.00  0.00    +0.064 HD
ATOM    181  H   UNK A   1      -2.203  17.023  -0.324  1.00  0.00    +0.296 HD
ATOM    182  H   UNK A   1     -11.497  16.658   3.119  1.00  0.00    +0.063 HD
ATOM    183  H   UNK A   1     -11.850  14.950   4.804  1.00  0.00    +0.063 HD
ATOM    184  H   UNK A   1     -12.255  11.996   4.567  1.00  0.00    +0.043 HD
ATOM    185  H   UNK A   1     -10.565  11.428   4.606  1.00  0.00    +0.043 HD
ATOM    186  H   UNK A   1      -9.927  12.054   2.264  1.00  0.00    +0.063 HD
ATOM    187  H   UNK A   1      -8.898  12.626   0.141  1.00  0.00    +0.058 HD
ATOM    188  H   UNK A   1     -10.645  16.228  -0.307  1.00  0.00    +0.028 HD
ATOM    189  H   UNK A   1      -9.437  17.000   0.772  1.00  0.00    +0.028 HD
ATOM    190  H   UNK A   1     -11.165  17.291   0.963  1.00  0.00    +0.028 HD
ENDROOT
TORSDOF 0
ENDMDL
MODEL 4
REMARK VINA RESULT:      -3.8      2.876     14.010
REMARK  Generated by RDKit with Gasteiger charges
REMARK  --------------------------------------------------
ROOT
ATOM      1  N   UNK A   1     -10.332   8.500   9.722  1.00  0.00    -0.131 N 
ATOM      2  C   UNK A   1     -11.738   8.786  10.072  1.00  0.00    +0.121 C 
ATOM      3  C   UNK A   1     -12.214   7.627  10.950  1.00  0.00    -0.037 C 
ATOM      4  C   UNK A   1     -11.767  10.112  10.853  1.00  0.00    +0.262 C 
ATOM      5  O   UNK A   1     -11.402  10.134  12.039  1.00  0.00    -0.271 OA
ATOM      6  N   UNK A   1     -12.013  11.216  10.137  1.00  0.00    -0.236 N 
ATOM      7  C   UNK A   1     -13.253  11.369   9.296  1.00  0.00    +0.143 C 
ATOM      8  C   UNK A   1     -13.048  11.128   7.750  1.00  0.00    +0.025 C 
ATOM      9  S   UNK A   1     -11.681  12.104   6.909  1.00  0.00    -0.154 S 
ATOM     10  C   UNK A   1     -14.552  10.620   9.768  1.00  0.00    +0.267 C 
ATOM     11  O   UNK A   1     -14.555   9.428  10.075  1.00  0.00    -0.270 OA
ATOM     12  N   UNK A   1     -15.633  11.431   9.779  1.00  0.00    -0.235 N 
ATOM     13  C   UNK A   1     -16.942  10.739   9.495  1.00  0.00    +0.143 C 
ATOM     14  C   UNK A   1     -17.541  10.075  10.761  1.00  0.00    +0.058 C 
ATOM     15  C   UNK A   1     -17.719  10.945  12.008  1.00  0.00    +0.220 C 
ATOM     16  O   UNK A   1     -18.313  10.554  13.021  1.00  0.00    -0.275 OA
ATOM     17  N   UNK A   1     -17.151  12.194  11.963  1.00  0.00    -0.370 N 
ATOM     18  C   UNK A   1     -18.010  11.739   8.929  1.00  0.00    +0.267 C 
ATOM     19  O   UNK A   1     -18.321  12.756   9.564  1.00  0.00    -0.270 OA
ATOM     20  N   UNK A   1     -18.560  11.311   7.778  1.00  0.00    -0.233 N 
ATOM     21  C   UNK A   1     -19.174  12.358   6.875  1.00  0.00    +0.160 C 
ATOM     22  C   UNK A   1     -18.230  13.553   6.505  1.00  0.00    +0.083 C 
ATOM     23  C   UNK A   1     -16.766  13.204   6.252  1.00  0.00    -0.036 C 
ATOM     24  O   UNK A   1     -18.289  14.552   7.567  1.00  0.00    -0.391 OA
ATOM     25  C   UNK A   1     -19.920  11.736   5.609  1.00  0.00    +0.269 C 
ATOM     26  O   UNK A   1     -21.070  11.287   5.745  1.00  0.00    -0.270 OA
ATOM     27  N   UNK A   1     -19.214  11.815   4.457  1.00  0.00    -0.236 N 
ATOM     28  C   UNK A   1     -19.950  11.650   3.161  1.00  0.00    +0.138 C 
ATOM     29  C   UNK A   1     -20.929  12.793   2.770  1.00  0.00    +0.006 C 
ATOM     30  C   UNK A   1     -20.689  14.203   3.257  1.00  0.00    -0.020 C 
ATOM     31  C   UNK A   1     -21.058  14.696   4.496  1.00  0.00    +0.005 C 
ATOM     32  N   UNK A   1     -20.479  15.922   4.650  1.00  0.00    -0.361 N 
ATOM     33  C   UNK A   1     -19.952  16.359   3.456  1.00  0.00    +0.046 C 
ATOM     34  C   UNK A   1     -19.309  17.562   3.133  1.00  0.00    -0.038 C 
ATOM     35  C   UNK A   1     -18.713  17.661   1.872  1.00  0.00    -0.060 C 
ATOM     36  C   UNK A   1     -18.742  16.588   0.984  1.00  0.00    -0.062 C 
ATOM     37  C   UNK A   1     -19.398  15.399   1.322  1.00  0.00    -0.053 C 
ATOM     38  C   UNK A   1     -20.026  15.276   2.576  1.00  0.00    +0.003 C 
ATOM     39  C   UNK A   1     -19.093  11.138   1.916  1.00  0.00    +0.267 C 
ATOM     40  O   UNK A   1     -19.212   9.945   1.591  1.00  0.00    -0.270 OA
ATOM     41  N   UNK A   1     -18.395  12.084   1.237  1.00  0.00    -0.236 N 
ATOM     42  C   UNK A   1     -17.511  11.589   0.088  1.00  0.00    +0.138 C 
ATOM     43  C   UNK A   1     -18.353  11.104  -1.127  1.00  0.00    +0.004 C 
ATOM     44  C   UNK A   1     -19.179  12.138  -1.877  1.00  0.00    -0.045 C 
ATOM     45  C   UNK A   1     -18.624  12.844  -2.952  1.00  0.00    -0.059 C 
ATOM     46  C   UNK A   1     -19.373  13.804  -3.634  1.00  0.00    -0.062 C 
ATOM     47  C   UNK A   1     -20.683  14.076  -3.242  1.00  0.00    -0.062 C 
ATOM     48  C   UNK A   1     -21.240  13.393  -2.160  1.00  0.00    -0.062 C 
ATOM     49  C   UNK A   1     -20.491  12.427  -1.484  1.00  0.00    -0.059 C 
ATOM     50  C   UNK A   1     -16.390  12.603  -0.444  1.00  0.00    +0.267 C 
ATOM     51  O   UNK A   1     -16.454  13.817  -0.241  1.00  0.00    -0.270 OA
ATOM     52  N   UNK A   1     -15.442  11.956  -1.187  1.00  0.00    -0.235 N 
ATOM     53  C   UNK A   1     -14.235  12.770  -1.648  1.00  0.00    +0.143 C 
ATOM     54  C   UNK A   1     -13.013  12.557  -0.672  1.00  0.00    +0.027 C 
ATOM     55  S   UNK A   1     -11.716  13.902  -0.751  1.00  0.00    -0.140 S 
ATOM     56  C   UNK A   1     -13.936  12.463  -3.197  1.00  0.00    +0.267 C 
ATOM     57  O   UNK A   1     -14.423  13.185  -4.076  1.00  0.00    -0.270 OA
ATOM     58  N   UNK A   1     -13.159  11.380  -3.407  1.00  0.00    -0.236 N 
ATOM     59  C   UNK A   1     -12.842  10.953  -4.807  1.00  0.00    +0.135 C 
ATOM     60  C   UNK A   1     -14.106  10.658  -5.695  1.00  0.00    -0.013 C 
ATOM     61  C   UNK A   1     -15.224   9.940  -4.915  1.00  0.00    -0.060 C 
ATOM     62  C   UNK A   1     -13.717   9.787  -6.922  1.00  0.00    -0.051 C 
ATOM     63  C   UNK A   1     -14.808   9.700  -7.982  1.00  0.00    -0.065 C 
ATOM     64  C   UNK A   1     -11.742  11.773  -5.597  1.00  0.00    +0.248 C 
ATOM     65  O   UNK A   1     -11.963  12.343  -6.671  1.00  0.00    -0.272 OA
ATOM     66  N   UNK A   1     -10.452  11.654  -5.038  1.00  0.00    -0.329 N 
ATOM     67  C   UNK A   1     -10.333  12.489  -3.837  1.00  0.00    +0.021 C 
ATOM     68  C   UNK A   1      -9.248  13.535  -4.131  1.00  0.00    -0.033 C 
ATOM     69  C   UNK A   1      -8.950  13.372  -5.617  1.00  0.00    -0.022 C 
ATOM     70  C   UNK A   1      -9.192  11.878  -5.794  1.00  0.00    +0.113 C 
ATOM     71  C   UNK A   1      -8.797  11.273  -7.203  1.00  0.00    +0.264 C 
ATOM     72  O   UNK A   1      -9.566  10.613  -7.907  1.00  0.00    -0.271 OA
ATOM     73  N   UNK A   1      -7.522  11.555  -7.571  1.00  0.00    -0.236 N 
ATOM     74  C   UNK A   1      -6.499  10.776  -6.791  1.00  0.00    +0.134 C 
ATOM     75  C   UNK A   1      -5.799   9.797  -7.773  1.00  0.00    -0.019 C 
ATOM     76  C   UNK A   1      -5.112   8.558  -7.156  1.00  0.00    -0.045 C 
ATOM     77  C   UNK A   1      -6.105   7.616  -6.473  1.00  0.00    -0.063 C 
ATOM     78  C   UNK A   1      -3.965   8.898  -6.208  1.00  0.00    -0.063 C 
ATOM     79  C   UNK A   1      -5.448  11.739  -6.131  1.00  0.00    +0.266 C 
ATOM     80  O   UNK A   1      -4.491  12.189  -6.773  1.00  0.00    -0.270 OA
ATOM     81  N   UNK A   1      -5.722  11.940  -4.831  1.00  0.00    -0.234 N 
ATOM     82  C   UNK A   1      -4.747  12.681  -3.961  1.00  0.00    +0.157 C 
ATOM     83  C   UNK A   1      -4.655  14.185  -4.320  1.00  0.00    +0.075 C 
ATOM     84  O   UNK A   1      -3.854  14.400  -5.507  1.00  0.00    -0.394 OA
ATOM     85  C   UNK A   1      -5.110  12.416  -2.421  1.00  0.00    +0.269 C 
ATOM     86  O   UNK A   1      -4.934  11.292  -1.938  1.00  0.00    -0.270 OA
ATOM     87  N   UNK A   1      -5.532  13.523  -1.772  1.00  0.00    -0.235 N 
ATOM     88  C   UNK A   1      -5.931  13.451  -0.323  1.00  0.00    +0.143 C 
ATOM     89  C   UNK A   1      -7.370  12.826  -0.064  1.00  0.00    +0.027 C 
ATOM     90  S   UNK A   1      -8.735  14.116  -0.220  1.00  0.00    -0.140 S 
ATOM     91  C   UNK A   1      -4.826  12.946   0.671  1.00  0.00    +0.267 C 
ATOM     92  O   UNK A   1      -5.009  12.023   1.466  1.00  0.00    -0.270 OA
ATOM     93  N   UNK A   1      -3.721  13.726   0.640  1.00  0.00    -0.238 N 
ATOM     94  C   UNK A   1      -2.629  13.270   1.516  1.00  0.00    +0.140 C 
ATOM     95  C   UNK A   1      -1.359  13.907   0.980  1.00  0.00    +0.325 C 
ATOM     96  O   UNK A   1      -0.280  13.957   1.569  1.00  0.00    -0.250 OA
ATOM     97  O   UNK A   1      -1.530  14.421  -0.266  1.00  0.00    -0.480 OA
ATOM     98  C   UNK A   1     -11.073  15.324   3.709  1.00  0.00    -0.059 C 
ATOM     99  C   UNK A   1     -11.507  14.325   4.579  1.00  0.00    -0.058 C 
ATOM    100  C   UNK A   1     -11.544  12.990   4.175  1.00  0.00    -0.038 C 
ATOM    101  C   UNK A   1     -12.168  11.935   5.108  1.00  0.00    +0.019 C 
ATOM    102  C   UNK A   1     -11.142  12.702   2.835  1.00  0.00    -0.053 C 
ATOM    103  C   UNK A   1     -10.694  13.707   1.908  1.00  0.00    -0.022 C 
ATOM    104  C   UNK A   1     -10.353  13.289   0.437  1.00  0.00    +0.076 C 
ATOM    105  C   UNK A   1     -10.691  15.050   2.380  1.00  0.00    -0.046 C 
ATOM    106  C   UNK A   1     -10.304  16.247   1.554  1.00  0.00    -0.039 C 
ATOM    107  H   UNK A   1     -12.330   8.810   9.160  1.00  0.00    +0.060 HD
ATOM    108  H   UNK A   1     -12.260   6.696  10.373  1.00  0.00    +0.025 HD
ATOM    109  H   UNK A   1     -11.542   7.459  11.801  1.00  0.00    +0.025 HD
ATOM    110  H   UNK A   1     -13.206   7.816  11.367  1.00  0.00    +0.025 HD
ATOM    111  H   UNK A   1     -13.494  12.443   9.370  1.00  0.00    +0.067 HD
ATOM    112  H   UNK A   1     -13.982  11.385   7.236  1.00  0.00    +0.041 HD
ATOM    113  H   UNK A   1     -12.851  10.072   7.543  1.00  0.00    +0.041 HD
ATOM    114  H   UNK A   1     -16.799   9.949   8.740  1.00  0.00    +0.066 HD
ATOM    115  H   UNK A   1     -18.534   9.673  10.520  1.00  0.00    +0.039 HD
ATOM    116  H   UNK A   1     -16.914   9.229  11.065  1.00  0.00    +0.039 HD
ATOM    117  H   UNK A   1     -17.566  12.671  11.143  1.00  0.00    +0.159 HD
ATOM    118  H   UNK A   1     -16.240  12.073  11.479  1.00  0.00    +0.159 HD
ATOM    119  H   UNK A   1     -20.011  12.816   7.428  1.00  0.00    +0.069 HD
ATOM    120  H   UNK A   1     -18.606  14.070   5.621  1.00  0.00    +0.063 HD
ATOM    121  H   UNK A   1     -16.233  14.086   5.878  1.00  0.00    +0.026 HD
ATOM    122  H   UNK A   1     -16.250  12.913   7.170  1.00  0.00    +0.026 HD
ATOM    123  H   UNK A   1     -16.657  12.406   5.512  1.00  0.00    +0.026 HD
ATOM    124  H   UNK A   1     -18.172  13.967   8.354  1.00  0.00    +0.211 HD
ATOM    125  H   UNK A   1     -20.620  10.781   3.293  1.00  0.00    +0.066 HD
ATOM    126  H   UNK A   1     -21.921  12.511   3.159  1.00  0.00    +0.034 HD
ATOM    127  H   UNK A   1     -21.069  12.817   1.682  1.00  0.00    +0.034 HD
ATOM    128  H   UNK A   1     -21.486  14.169   5.338  1.00  0.00    +0.082 HD
ATOM    129  H   UNK A   1     -20.307  16.349   5.545  1.00  0.00    +0.166 HD
ATOM    130  H   UNK A   1     -19.206  18.354   3.863  1.00  0.00    +0.064 HD
ATOM    131  H   UNK A   1     -18.133  18.539   1.613  1.00  0.00    +0.062 HD
ATOM    132  H   UNK A   1     -18.174  16.603   0.055  1.00  0.00    +0.062 HD
ATOM    133  H   UNK A   1     -19.314  14.531   0.667  1.00  0.00    +0.063 HD
ATOM    134  H   UNK A   1     -16.942  10.723   0.463  1.00  0.00    +0.066 HD
ATOM    135  H   UNK A   1     -19.030  10.297  -0.823  1.00  0.00    +0.034 HD
ATOM    136  H   UNK A   1     -17.688  10.623  -1.859  1.00  0.00    +0.034 HD
ATOM    137  H   UNK A   1     -17.573  12.676  -3.205  1.00  0.00    +0.063 HD
ATOM    138  H   UNK A   1     -18.889  14.362  -4.427  1.00  0.00    +0.062 HD
ATOM    139  H   UNK A   1     -21.244  14.855  -3.741  1.00  0.00    +0.062 HD
ATOM    140  H   UNK A   1     -22.229  13.637  -1.793  1.00  0.00    +0.062 HD
ATOM    141  H   UNK A   1     -20.879  11.931  -0.595  1.00  0.00    +0.063 HD
ATOM    142  H   UNK A   1     -14.471  13.845  -1.637  1.00  0.00    +0.067 HD
ATOM    143  H   UNK A   1     -13.374  12.549   0.362  1.00  0.00    +0.041 HD
ATOM    144  H   UNK A   1     -12.517  11.600  -0.862  1.00  0.00    +0.041 HD
ATOM    145  H   UNK A   1     -12.358   9.966  -4.692  1.00  0.00    +0.066 HD
ATOM    146  H   UNK A   1     -14.506  11.608  -6.068  1.00  0.00    +0.033 HD
ATOM    147  H   UNK A   1     -14.870   8.988  -4.505  1.00  0.00    +0.023 HD
ATOM    148  H   UNK A   1     -16.089   9.732  -5.552  1.00  0.00    +0.023 HD
ATOM    149  H   UNK A   1     -15.605  10.544  -4.087  1.00  0.00    +0.023 HD
ATOM    150  H   UNK A   1     -13.455   8.774  -6.593  1.00  0.00    +0.027 HD
ATOM    151  H   UNK A   1     -12.824  10.185  -7.413  1.00  0.00    +0.027 HD
ATOM    152  H   UNK A   1     -15.679   9.141  -7.627  1.00  0.00    +0.023 HD
ATOM    153  H   UNK A   1     -15.134  10.697  -8.292  1.00  0.00    +0.023 HD
ATOM    154  H   UNK A   1     -14.428   9.179  -8.868  1.00  0.00    +0.023 HD
ATOM    155  H   UNK A   1     -10.053  11.854  -2.992  1.00  0.00    +0.049 HD
ATOM    156  H   UNK A   1     -11.258  13.022  -3.617  1.00  0.00    +0.049 HD
ATOM    157  H   UNK A   1      -9.568  14.550  -3.880  1.00  0.00    +0.029 HD
ATOM    158  H   UNK A   1      -8.352  13.315  -3.537  1.00  0.00    +0.029 HD
ATOM    159  H   UNK A   1      -9.654  13.956  -6.221  1.00  0.00    +0.029 HD
ATOM    160  H   UNK A   1      -7.938  13.699  -5.868  1.00  0.00    +0.029 HD
ATOM    161  H   UNK A   1      -8.487  11.357  -5.129  1.00  0.00    +0.064 HD
ATOM    162  H   UNK A   1      -6.953  10.168  -6.000  1.00  0.00    +0.066 HD
ATOM    163  H   UNK A   1      -6.543   9.417  -8.491  1.00  0.00    +0.030 HD
ATOM    164  H   UNK A   1      -5.062  10.338  -8.380  1.00  0.00    +0.030 HD
ATOM    165  H   UNK A   1      -4.674   8.002  -7.996  1.00  0.00    +0.030 HD
ATOM    166  H   UNK A   1      -5.615   6.674  -6.204  1.00  0.00    +0.023 HD
ATOM    167  H   UNK A   1      -6.513   8.045  -5.553  1.00  0.00    +0.023 HD
ATOM    168  H   UNK A   1      -6.940   7.378  -7.140  1.00  0.00    +0.023 HD
ATOM    169  H   UNK A   1      -3.257   9.589  -6.680  1.00  0.00    +0.023 HD
ATOM    170  H   UNK A   1      -4.324   9.346  -5.277  1.00  0.00    +0.023 HD
ATOM    171  H   UNK A   1      -3.410   7.992  -5.938  1.00  0.00    +0.023 HD
ATOM    172  H   UNK A   1      -3.742  12.252  -4.082  1.00  0.00    +0.068 HD
ATOM    173  H   UNK A   1      -4.161  14.761  -3.532  1.00  0.00    +0.059 HD
ATOM    174  H   UNK A   1      -5.643  14.622  -4.501  1.00  0.00    +0.059 HD
ATOM    175  H   UNK A   1      -4.136  13.616  -6.044  1.00  0.00    +0.210 HD
ATOM    176  H   UNK A   1      -6.041  14.501   0.000  1.00  0.00    +0.067 HD
ATOM    177  H   UNK A   1      -7.581  12.015  -0.770  1.00  0.00    +0.041 HD
ATOM    178  H   UNK A   1      -7.439  12.438   0.956  1.00  0.00    +0.041 HD
ATOM    179  H   UNK A   1      -2.770  13.605   2.548  1.00  0.00    +0.064 HD
ATOM    180  H   UNK A   1      -2.470  12.186   1.496  1.00  0.00    +0.064 HD
ATOM    181  H   UNK A   1      -2.509  14.216  -0.438  1.00  0.00    +0.296 HD
ATOM    182  H   UNK A   1     -11.082  16.350   4.069  1.00  0.00    +0.063 HD
ATOM    183  H   UNK A   1     -11.861  14.608   5.566  1.00  0.00    +0.063 HD
ATOM    184  H   UNK A   1     -13.258  12.018   5.027  1.00  0.00    +0.043 HD
ATOM    185  H   UNK A   1     -11.862  10.935   4.786  1.00  0.00    +0.043 HD
ATOM    186  H   UNK A   1     -11.233  11.677   2.475  1.00  0.00    +0.063 HD
ATOM    187  H   UNK A   1     -10.239  12.207   0.325  1.00  0.00    +0.058 HD
ATOM    188  H   UNK A   1     -10.694  16.204   0.537  1.00  0.00    +0.028 HD
ATOM    189  H   UNK A   1      -9.216  16.366   1.541  1.00  0.00    +0.028 HD
ATOM    190  H   UNK A   1     -10.723  17.168   1.980  1.00  0.00    +0.028 HD
ENDROOT
TORSDOF 0
ENDMDL
