MODEL 1
REMARK VINA RESULT:      -6.7      0.000      0.000
REMARK  Generated by RDKit with Gasteiger charges
REMARK  --------------------------------------------------
ROOT
ATOM      1  N   UNK A   1     -15.081   9.874   5.742  1.00  0.00    -0.131 N 
ATOM      2  C   UNK A   1     -13.643   9.973   5.407  1.00  0.00    +0.121 C 
ATOM      3  C   UNK A   1     -12.994   8.630   5.716  1.00  0.00    -0.037 C 
ATOM      4  C   UNK A   1     -13.512  10.340   3.920  1.00  0.00    +0.262 C 
ATOM      5  O   UNK A   1     -14.220   9.816   3.055  1.00  0.00    -0.271 OA
ATOM      6  N   UNK A   1     -12.585  11.295   3.773  1.00  0.00    -0.236 N 
ATOM      7  C   UNK A   1     -11.487  10.977   2.793  1.00  0.00    +0.143 C 
ATOM      8  C   UNK A   1     -10.558  12.217   2.511  1.00  0.00    +0.025 C 
ATOM      9  S   UNK A   1     -11.340  13.603   1.492  1.00  0.00    -0.154 S 
ATOM     10  C   UNK A   1     -10.659   9.693   3.209  1.00  0.00    +0.267 C 
ATOM     11  O   UNK A   1     -10.956   8.593   2.720  1.00  0.00    -0.270 OA
ATOM     12  N   UNK A   1      -9.722   9.873   4.164  1.00  0.00    -0.239 N 
ATOM     13  C   UNK A   1      -8.315   9.804   3.630  1.00  0.00    +0.124 C 
ATOM     14  C   UNK A   1      -7.230   9.189   4.580  1.00  0.00    +0.263 C 
ATOM     15  O   UNK A   1      -7.551   8.417   5.498  1.00  0.00    -0.271 OA
ATOM     16  N   UNK A   1      -5.918   9.457   4.330  1.00  0.00    -0.240 N 
ATOM     17  C   UNK A   1      -5.512  10.306   3.162  1.00  0.00    +0.124 C 
ATOM     18  C   UNK A   1      -3.962  10.568   3.043  1.00  0.00    +0.263 C 
ATOM     19  O   UNK A   1      -3.177  10.420   3.989  1.00  0.00    -0.271 OA
ATOM     20  N   UNK A   1      -3.577  10.913   1.788  1.00  0.00    -0.236 N 
ATOM     21  C   UNK A   1      -3.474  12.427   1.524  1.00  0.00    +0.140 C 
ATOM     22  C   UNK A   1      -2.158  13.001   2.172  1.00  0.00    +0.023 C 
ATOM     23  C   UNK A   1      -1.996  14.504   2.176  1.00  0.00    +0.061 C 
ATOM     24  C   UNK A   1      -3.003  15.452   2.243  1.00  0.00    +0.024 C 
ATOM     25  N   UNK A   1      -2.486  16.530   1.569  1.00  0.00    -0.351 N 
ATOM     26  C   UNK A   1      -1.134  16.319   1.482  1.00  0.00    +0.092 C 
ATOM     27  N   UNK A   1      -0.772  15.138   1.953  1.00  0.00    -0.242 N 
ATOM     28  C   UNK A   1      -3.564  12.729  -0.068  1.00  0.00    +0.267 C 
ATOM     29  O   UNK A   1      -3.653  11.837  -0.918  1.00  0.00    -0.270 OA
ATOM     30  N   UNK A   1      -3.491  14.053  -0.350  1.00  0.00    -0.234 N 
ATOM     31  C   UNK A   1      -4.552  14.644  -1.220  1.00  0.00    +0.157 C 
ATOM     32  C   UNK A   1      -5.959  14.615  -0.575  1.00  0.00    +0.075 C 
ATOM     33  O   UNK A   1      -6.068  15.429   0.596  1.00  0.00    -0.394 OA
ATOM     34  C   UNK A   1      -4.223  16.105  -1.783  1.00  0.00    +0.269 C 
ATOM     35  O   UNK A   1      -3.879  16.217  -2.969  1.00  0.00    -0.270 OA
ATOM     36  N   UNK A   1      -4.363  17.115  -0.883  1.00  0.00    -0.235 N 
ATOM     37  C   UNK A   1      -4.790  18.490  -1.456  1.00  0.00    +0.143 C 
ATOM     38  C   UNK A   1      -6.322  18.720  -1.121  1.00  0.00    +0.027 C 
ATOM     39  S   UNK A   1      -7.463  19.212  -2.542  1.00  0.00    -0.140 S 
ATOM     40  C   UNK A   1      -3.836  19.649  -0.835  1.00  0.00    +0.267 C 
ATOM     41  O   UNK A   1      -2.843  19.389  -0.148  1.00  0.00    -0.270 OA
ATOM     42  N   UNK A   1      -4.252  20.895  -1.186  1.00  0.00    -0.236 N 
ATOM     43  C   UNK A   1      -3.236  22.028  -1.172  1.00  0.00    +0.140 C 
ATOM     44  C   UNK A   1      -2.514  22.063  -2.560  1.00  0.00    +0.023 C 
ATOM     45  C   UNK A   1      -1.576  23.213  -2.880  1.00  0.00    +0.061 C 
ATOM     46  C   UNK A   1      -1.274  24.312  -2.089  1.00  0.00    +0.024 C 
ATOM     47  N   UNK A   1      -1.613  25.328  -2.972  1.00  0.00    -0.351 N 
ATOM     48  C   UNK A   1      -1.456  24.815  -4.234  1.00  0.00    +0.092 C 
ATOM     49  N   UNK A   1      -1.236  23.519  -4.199  1.00  0.00    -0.242 N 
ATOM     50  C   UNK A   1      -3.918  23.388  -0.613  1.00  0.00    +0.267 C 
ATOM     51  O   UNK A   1      -4.062  23.502   0.613  1.00  0.00    -0.270 OA
ATOM     52  N   UNK A   1      -4.141  24.366  -1.532  1.00  0.00    -0.236 N 
ATOM     53  C   UNK A   1      -4.811  25.638  -1.084  1.00  0.00    +0.131 C 
ATOM     54  C   UNK A   1      -4.030  26.360   0.031  1.00  0.00    -0.033 C 
ATOM     55  C   UNK A   1      -4.921  26.718  -2.250  1.00  0.00    +0.266 C 
ATOM     56  O   UNK A   1      -3.944  26.994  -2.963  1.00  0.00    -0.270 OA
ATOM     57  N   UNK A   1      -6.062  27.430  -2.134  1.00  0.00    -0.236 N 
ATOM     58  C   UNK A   1      -6.750  28.071  -3.286  1.00  0.00    +0.135 C 
ATOM     59  C   UNK A   1      -5.869  29.106  -4.046  1.00  0.00    -0.013 C 
ATOM     60  C   UNK A   1      -4.890  28.554  -5.095  1.00  0.00    +0.029 C 
ATOM     61  C   UNK A   1      -5.079  29.146  -6.484  1.00  0.00    +0.217 C 
ATOM     62  O   UNK A   1      -4.194  29.710  -7.135  1.00  0.00    -0.275 OA
ATOM     63  N   UNK A   1      -6.331  29.006  -7.004  1.00  0.00    -0.370 N 
ATOM     64  C   UNK A   1      -7.700  27.251  -4.241  1.00  0.00    +0.266 C 
ATOM     65  O   UNK A   1      -7.538  27.302  -5.470  1.00  0.00    -0.270 OA
ATOM     66  N   UNK A   1      -8.780  26.700  -3.639  1.00  0.00    -0.236 N 
ATOM     67  C   UNK A   1      -9.158  25.341  -4.202  1.00  0.00    +0.131 C 
ATOM     68  C   UNK A   1      -8.024  24.338  -3.892  1.00  0.00    -0.033 C 
ATOM     69  C   UNK A   1     -10.529  24.717  -3.678  1.00  0.00    +0.266 C 
ATOM     70  O   UNK A   1     -11.228  25.244  -2.813  1.00  0.00    -0.270 OA
ATOM     71  N   UNK A   1     -10.882  23.630  -4.412  1.00  0.00    -0.235 N 
ATOM     72  C   UNK A   1     -11.387  22.370  -3.726  1.00  0.00    +0.143 C 
ATOM     73  C   UNK A   1     -10.369  21.641  -2.739  1.00  0.00    +0.027 C 
ATOM     74  S   UNK A   1     -10.587  19.748  -2.816  1.00  0.00    -0.140 S 
ATOM     75  C   UNK A   1     -12.853  22.514  -3.198  1.00  0.00    +0.267 C 
ATOM     76  O   UNK A   1     -13.175  22.474  -2.011  1.00  0.00    -0.270 OA
ATOM     77  N   UNK A   1     -13.734  22.622  -4.215  1.00  0.00    -0.238 N 
ATOM     78  C   UNK A   1     -14.709  23.692  -4.001  1.00  0.00    +0.140 C 
ATOM     79  C   UNK A   1     -14.714  24.543  -5.256  1.00  0.00    +0.325 C 
ATOM     80  O   UNK A   1     -15.739  24.975  -5.794  1.00  0.00    -0.250 OA
ATOM     81  O   UNK A   1     -13.478  24.827  -5.728  1.00  0.00    -0.480 OA
ATOM     82  C   UNK A   1      -9.928  15.161  -2.632  1.00  0.00    -0.059 C 
ATOM     83  C   UNK A   1     -10.031  14.594  -1.363  1.00  0.00    -0.058 C 
ATOM     84  C   UNK A   1      -9.869  15.375  -0.218  1.00  0.00    -0.038 C 
ATOM     85  C   UNK A   1      -9.840  14.681   1.154  1.00  0.00    +0.019 C 
ATOM     86  C   UNK A   1      -9.583  16.763  -0.401  1.00  0.00    -0.053 C 
ATOM     87  C   UNK A   1      -9.478  17.381  -1.692  1.00  0.00    -0.022 C 
ATOM     88  C   UNK A   1      -9.145  18.925  -1.798  1.00  0.00    +0.076 C 
ATOM     89  C   UNK A   1      -9.643  16.533  -2.819  1.00  0.00    -0.046 C 
ATOM     90  C   UNK A   1      -9.565  16.992  -4.251  1.00  0.00    -0.039 C 
ATOM     91  H   UNK A   1     -13.222  10.754   6.050  1.00  0.00    +0.060 HD
ATOM     92  H   UNK A   1     -13.230   8.304   6.737  1.00  0.00    +0.025 HD
ATOM     93  H   UNK A   1     -11.906   8.696   5.650  1.00  0.00    +0.025 HD
ATOM     94  H   UNK A   1     -13.330   7.847   5.027  1.00  0.00    +0.025 HD
ATOM     95  H   UNK A   1     -11.924  10.713   1.818  1.00  0.00    +0.067 HD
ATOM     96  H   UNK A   1     -10.209  12.661   3.447  1.00  0.00    +0.041 HD
ATOM     97  H   UNK A   1      -9.685  11.883   1.941  1.00  0.00    +0.041 HD
ATOM     98  H   UNK A   1      -8.258   9.227   2.699  1.00  0.00    +0.062 HD
ATOM     99  H   UNK A   1      -8.019  10.833   3.399  1.00  0.00    +0.062 HD
ATOM    100  H   UNK A   1      -5.959  11.305   3.224  1.00  0.00    +0.062 HD
ATOM    101  H   UNK A   1      -5.838   9.834   2.225  1.00  0.00    +0.062 HD
ATOM    102  H   UNK A   1      -4.351  12.924   1.967  1.00  0.00    +0.066 HD
ATOM    103  H   UNK A   1      -2.083  12.669   3.214  1.00  0.00    +0.036 HD
ATOM    104  H   UNK A   1      -1.297  12.565   1.648  1.00  0.00    +0.036 HD
ATOM    105  H   UNK A   1      -4.072  15.333   2.351  1.00  0.00    +0.084 HD
ATOM    106  H   UNK A   1      -3.018  17.215   1.023  1.00  0.00    +0.167 HD
ATOM    107  H   UNK A   1      -0.503  17.043   0.992  1.00  0.00    +0.104 HD
ATOM    108  H   UNK A   1      -4.630  14.037  -2.134  1.00  0.00    +0.068 HD
ATOM    109  H   UNK A   1      -6.251  13.594  -0.319  1.00  0.00    +0.059 HD
ATOM    110  H   UNK A   1      -6.693  15.001  -1.291  1.00  0.00    +0.059 HD
ATOM    111  H   UNK A   1      -5.372  16.107   0.418  1.00  0.00    +0.210 HD
ATOM    112  H   UNK A   1      -4.636  18.530  -2.543  1.00  0.00    +0.067 HD
ATOM    113  H   UNK A   1      -6.747  17.799  -0.717  1.00  0.00    +0.041 HD
ATOM    114  H   UNK A   1      -6.436  19.495  -0.358  1.00  0.00    +0.041 HD
ATOM    115  H   UNK A   1      -2.445  21.838  -0.428  1.00  0.00    +0.066 HD
ATOM    116  H   UNK A   1      -1.945  21.134  -2.691  1.00  0.00    +0.036 HD
ATOM    117  H   UNK A   1      -3.281  22.064  -3.345  1.00  0.00    +0.036 HD
ATOM    118  H   UNK A   1      -1.463  24.467  -1.036  1.00  0.00    +0.084 HD
ATOM    119  H   UNK A   1      -2.283  26.058  -2.734  1.00  0.00    +0.167 HD
ATOM    120  H   UNK A   1      -1.620  25.418  -5.113  1.00  0.00    +0.104 HD
ATOM    121  H   UNK A   1      -5.825  25.415  -0.727  1.00  0.00    +0.065 HD
ATOM    122  H   UNK A   1      -2.998  26.574  -0.275  1.00  0.00    +0.026 HD
ATOM    123  H   UNK A   1      -3.980  25.788   0.959  1.00  0.00    +0.026 HD
ATOM    124  H   UNK A   1      -4.499  27.318   0.278  1.00  0.00    +0.026 HD
ATOM    125  H   UNK A   1      -7.482  28.740  -2.796  1.00  0.00    +0.066 HD
ATOM    126  H   UNK A   1      -6.542  29.837  -4.517  1.00  0.00    +0.030 HD
ATOM    127  H   UNK A   1      -5.289  29.682  -3.311  1.00  0.00    +0.030 HD
ATOM    128  H   UNK A   1      -4.954  27.467  -5.199  1.00  0.00    +0.037 HD
ATOM    129  H   UNK A   1      -3.863  28.794  -4.795  1.00  0.00    +0.037 HD
ATOM    130  H   UNK A   1      -6.469  29.079  -7.990  1.00  0.00    +0.159 HD
ATOM    131  H   UNK A   1      -6.921  28.301  -6.510  1.00  0.00    +0.159 HD
ATOM    132  H   UNK A   1      -9.272  25.419  -5.295  1.00  0.00    +0.065 HD
ATOM    133  H   UNK A   1      -7.048  24.695  -4.240  1.00  0.00    +0.026 HD
ATOM    134  H   UNK A   1      -7.947  24.160  -2.811  1.00  0.00    +0.026 HD
ATOM    135  H   UNK A   1      -8.198  23.375  -4.386  1.00  0.00    +0.026 HD
ATOM    136  H   UNK A   1     -11.480  21.646  -4.558  1.00  0.00    +0.067 HD
ATOM    137  H   UNK A   1     -10.530  21.955  -1.704  1.00  0.00    +0.041 HD
ATOM    138  H   UNK A   1      -9.336  21.843  -3.029  1.00  0.00    +0.041 HD
ATOM    139  H   UNK A   1     -15.718  23.289  -3.857  1.00  0.00    +0.064 HD
ATOM    140  H   UNK A   1     -14.496  24.372  -3.168  1.00  0.00    +0.064 HD
ATOM    141  H   UNK A   1     -12.808  24.347  -5.133  1.00  0.00    +0.296 HD
ATOM    142  H   UNK A   1     -10.034  14.509  -3.492  1.00  0.00    +0.063 HD
ATOM    143  H   UNK A   1     -10.179  13.520  -1.271  1.00  0.00    +0.063 HD
ATOM    144  H   UNK A   1      -9.811  15.434   1.948  1.00  0.00    +0.043 HD
ATOM    145  H   UNK A   1      -8.933  14.070   1.216  1.00  0.00    +0.043 HD
ATOM    146  H   UNK A   1      -9.372  17.371   0.479  1.00  0.00    +0.063 HD
ATOM    147  H   UNK A   1      -9.182  19.382  -0.804  1.00  0.00    +0.058 HD
ATOM    148  H   UNK A   1     -10.543  17.343  -4.589  1.00  0.00    +0.028 HD
ATOM    149  H   UNK A   1      -8.812  17.761  -4.419  1.00  0.00    +0.028 HD
ATOM    150  H   UNK A   1      -9.274  16.162  -4.904  1.00  0.00    +0.028 HD
ENDROOT
TORSDOF 0
ENDMDL
MODEL 2
REMARK VINA RESULT:      -4.2      7.230     16.934
REMARK  Generated by RDKit with Gasteiger charges
REMARK  --------------------------------------------------
ROOT
ATOM      1  N   UNK A   1      -0.315  18.038  -1.872  1.00  0.00    -0.131 N 
ATOM      2  C   UNK A   1      -1.507  17.491  -2.556  1.00  0.00    +0.121 C 
ATOM      3  C   UNK A   1      -1.200  17.411  -4.046  1.00  0.00    -0.037 C 
ATOM      4  C   UNK A   1      -1.817  16.106  -1.964  1.00  0.00    +0.262 C 
ATOM      5  O   UNK A   1      -0.925  15.287  -1.721  1.00  0.00    -0.271 OA
ATOM      6  N   UNK A   1      -3.133  15.996  -1.742  1.00  0.00    -0.236 N 
ATOM      7  C   UNK A   1      -3.792  14.800  -2.376  1.00  0.00    +0.143 C 
ATOM      8  C   UNK A   1      -5.282  14.616  -1.901  1.00  0.00    +0.025 C 
ATOM      9  S   UNK A   1      -5.501  14.042  -0.115  1.00  0.00    -0.154 S 
ATOM     10  C   UNK A   1      -3.664  14.805  -3.954  1.00  0.00    +0.267 C 
ATOM     11  O   UNK A   1      -2.748  14.165  -4.492  1.00  0.00    -0.270 OA
ATOM     12  N   UNK A   1      -4.527  15.603  -4.618  1.00  0.00    -0.239 N 
ATOM     13  C   UNK A   1      -5.589  14.834  -5.361  1.00  0.00    +0.124 C 
ATOM     14  C   UNK A   1      -6.081  15.444  -6.718  1.00  0.00    +0.263 C 
ATOM     15  O   UNK A   1      -5.366  16.232  -7.359  1.00  0.00    -0.271 OA
ATOM     16  N   UNK A   1      -7.278  15.033  -7.222  1.00  0.00    -0.240 N 
ATOM     17  C   UNK A   1      -8.104  14.006  -6.507  1.00  0.00    +0.124 C 
ATOM     18  C   UNK A   1      -9.487  13.679  -7.188  1.00  0.00    +0.263 C 
ATOM     19  O   UNK A   1     -10.029  14.428  -8.011  1.00  0.00    -0.271 OA
ATOM     20  N   UNK A   1      -9.987  12.471  -6.824  1.00  0.00    -0.236 N 
ATOM     21  C   UNK A   1     -10.993  12.499  -5.658  1.00  0.00    +0.140 C 
ATOM     22  C   UNK A   1     -12.393  13.015  -6.164  1.00  0.00    +0.023 C 
ATOM     23  C   UNK A   1     -13.443  13.291  -5.111  1.00  0.00    +0.061 C 
ATOM     24  C   UNK A   1     -13.230  13.715  -3.811  1.00  0.00    +0.024 C 
ATOM     25  N   UNK A   1     -14.290  13.191  -3.115  1.00  0.00    -0.351 N 
ATOM     26  C   UNK A   1     -15.228  12.835  -4.050  1.00  0.00    +0.092 C 
ATOM     27  N   UNK A   1     -14.796  12.993  -5.290  1.00  0.00    -0.242 N 
ATOM     28  C   UNK A   1     -11.087  11.039  -4.958  1.00  0.00    +0.267 C 
ATOM     29  O   UNK A   1     -10.458  10.056  -5.365  1.00  0.00    -0.270 OA
ATOM     30  N   UNK A   1     -11.953  11.018  -3.915  1.00  0.00    -0.234 N 
ATOM     31  C   UNK A   1     -11.466  10.476  -2.611  1.00  0.00    +0.157 C 
ATOM     32  C   UNK A   1     -10.345  11.332  -1.971  1.00  0.00    +0.075 C 
ATOM     33  O   UNK A   1     -10.774  12.643  -1.592  1.00  0.00    -0.394 OA
ATOM     34  C   UNK A   1     -12.614  10.167  -1.540  1.00  0.00    +0.269 C 
ATOM     35  O   UNK A   1     -12.940   8.986  -1.347  1.00  0.00    -0.270 OA
ATOM     36  N   UNK A   1     -13.135  11.260  -0.921  1.00  0.00    -0.235 N 
ATOM     37  C   UNK A   1     -13.634  11.053   0.531  1.00  0.00    +0.143 C 
ATOM     38  C   UNK A   1     -12.570  11.683   1.523  1.00  0.00    +0.027 C 
ATOM     39  S   UNK A   1     -11.951  10.604   2.943  1.00  0.00    -0.140 S 
ATOM     40  C   UNK A   1     -15.106  11.721   0.693  1.00  0.00    +0.267 C 
ATOM     41  O   UNK A   1     -15.740  12.163  -0.270  1.00  0.00    -0.270 OA
ATOM     42  N   UNK A   1     -15.537  11.701   1.982  1.00  0.00    -0.236 N 
ATOM     43  C   UNK A   1     -17.035  11.766   2.246  1.00  0.00    +0.140 C 
ATOM     44  C   UNK A   1     -17.609  10.312   2.210  1.00  0.00    +0.023 C 
ATOM     45  C   UNK A   1     -19.050  10.071   2.621  1.00  0.00    +0.061 C 
ATOM     46  C   UNK A   1     -19.973  11.002   3.075  1.00  0.00    +0.024 C 
ATOM     47  N   UNK A   1     -20.317  10.410   4.283  1.00  0.00    -0.351 N 
ATOM     48  C   UNK A   1     -20.110   9.063   4.128  1.00  0.00    +0.092 C 
ATOM     49  N   UNK A   1     -19.489   8.801   2.999  1.00  0.00    -0.242 N 
ATOM     50  C   UNK A   1     -17.337  12.692   3.541  1.00  0.00    +0.267 C 
ATOM     51  O   UNK A   1     -17.309  13.924   3.393  1.00  0.00    -0.270 OA
ATOM     52  N   UNK A   1     -17.749  12.039   4.661  1.00  0.00    -0.236 N 
ATOM     53  C   UNK A   1     -18.006  12.837   5.911  1.00  0.00    +0.131 C 
ATOM     54  C   UNK A   1     -19.080  13.925   5.710  1.00  0.00    -0.033 C 
ATOM     55  C   UNK A   1     -18.567  11.946   7.106  1.00  0.00    +0.266 C 
ATOM     56  O   UNK A   1     -19.498  11.146   6.928  1.00  0.00    -0.270 OA
ATOM     57  N   UNK A   1     -18.103  12.394   8.293  1.00  0.00    -0.236 N 
ATOM     58  C   UNK A   1     -17.938  11.527   9.490  1.00  0.00    +0.135 C 
ATOM     59  C   UNK A   1     -19.259  10.849   9.960  1.00  0.00    -0.013 C 
ATOM     60  C   UNK A   1     -19.680   9.560   9.235  1.00  0.00    +0.029 C 
ATOM     61  C   UNK A   1     -19.876   8.369  10.162  1.00  0.00    +0.217 C 
ATOM     62  O   UNK A   1     -20.912   7.703  10.243  1.00  0.00    -0.275 OA
ATOM     63  N   UNK A   1     -18.794   8.053  10.929  1.00  0.00    -0.370 N 
ATOM     64  C   UNK A   1     -16.673  10.604   9.672  1.00  0.00    +0.266 C 
ATOM     65  O   UNK A   1     -16.816   9.400   9.937  1.00  0.00    -0.270 OA
ATOM     66  N   UNK A   1     -15.489  11.259   9.730  1.00  0.00    -0.236 N 
ATOM     67  C   UNK A   1     -14.351  10.510   9.061  1.00  0.00    +0.131 C 
ATOM     68  C   UNK A   1     -14.634  10.416   7.545  1.00  0.00    -0.033 C 
ATOM     69  C   UNK A   1     -12.892  11.125   9.255  1.00  0.00    +0.266 C 
ATOM     70  O   UNK A   1     -12.674  12.183   9.844  1.00  0.00    -0.270 OA
ATOM     71  N   UNK A   1     -11.937  10.260   8.824  1.00  0.00    -0.235 N 
ATOM     72  C   UNK A   1     -10.774  10.758   7.979  1.00  0.00    +0.143 C 
ATOM     73  C   UNK A   1     -11.144  11.392   6.564  1.00  0.00    +0.027 C 
ATOM     74  S   UNK A   1      -9.810  10.978   5.265  1.00  0.00    -0.140 S 
ATOM     75  C   UNK A   1      -9.712  11.545   8.815  1.00  0.00    +0.267 C 
ATOM     76  O   UNK A   1      -9.447  12.737   8.664  1.00  0.00    -0.270 OA
ATOM     77  N   UNK A   1      -9.069  10.735   9.682  1.00  0.00    -0.238 N 
ATOM     78  C   UNK A   1      -8.957  11.321  11.019  1.00  0.00    +0.140 C 
ATOM     79  C   UNK A   1      -9.459  10.280  12.001  1.00  0.00    +0.325 C 
ATOM     80  O   UNK A   1      -8.908  10.021  13.076  1.00  0.00    -0.250 OA
ATOM     81  O   UNK A   1     -10.604   9.670  11.613  1.00  0.00    -0.480 OA
ATOM     82  C   UNK A   1      -7.519  10.131   1.323  1.00  0.00    -0.059 C 
ATOM     83  C   UNK A   1      -7.107  11.261   0.618  1.00  0.00    -0.058 C 
ATOM     84  C   UNK A   1      -7.728  12.494   0.821  1.00  0.00    -0.038 C 
ATOM     85  C   UNK A   1      -7.343  13.675  -0.087  1.00  0.00    +0.019 C 
ATOM     86  C   UNK A   1      -8.803  12.544   1.761  1.00  0.00    -0.053 C 
ATOM     87  C   UNK A   1      -9.248  11.403   2.509  1.00  0.00    -0.022 C 
ATOM     88  C   UNK A   1     -10.456  11.551   3.520  1.00  0.00    +0.076 C 
ATOM     89  C   UNK A   1      -8.583  10.175   2.252  1.00  0.00    -0.046 C 
ATOM     90  C   UNK A   1      -8.908   8.871   2.932  1.00  0.00    -0.039 C 
ATOM     91  H   UNK A   1      -2.327  18.195  -2.375  1.00  0.00    +0.060 HD
ATOM     92  H   UNK A   1      -0.827  18.372  -4.423  1.00  0.00    +0.025 HD
ATOM     93  H   UNK A   1      -2.100  17.175  -4.619  1.00  0.00    +0.025 HD
ATOM     94  H   UNK A   1      -0.446  16.647  -4.266  1.00  0.00    +0.025 HD
ATOM     95  H   UNK A   1      -3.273  13.881  -2.065  1.00  0.00    +0.067 HD
ATOM     96  H   UNK A   1      -5.843  15.549  -2.012  1.00  0.00    +0.041 HD
ATOM     97  H   UNK A   1      -5.760  13.852  -2.522  1.00  0.00    +0.041 HD
ATOM     98  H   UNK A   1      -5.268  13.811  -5.591  1.00  0.00    +0.062 HD
ATOM     99  H   UNK A   1      -6.450  14.766  -4.688  1.00  0.00    +0.062 HD
ATOM    100  H   UNK A   1      -8.365  14.340  -5.495  1.00  0.00    +0.062 HD
ATOM    101  H   UNK A   1      -7.545  13.063  -6.430  1.00  0.00    +0.062 HD
ATOM    102  H   UNK A   1     -10.612  13.175  -4.876  1.00  0.00    +0.066 HD
ATOM    103  H   UNK A   1     -12.262  13.942  -6.734  1.00  0.00    +0.036 HD
ATOM    104  H   UNK A   1     -12.799  12.276  -6.868  1.00  0.00    +0.036 HD
ATOM    105  H   UNK A   1     -12.314  13.978  -3.300  1.00  0.00    +0.084 HD
ATOM    106  H   UNK A   1     -14.284  12.891  -2.135  1.00  0.00    +0.167 HD
ATOM    107  H   UNK A   1     -16.164  12.398  -3.741  1.00  0.00    +0.104 HD
ATOM    108  H   UNK A   1     -11.020   9.486  -2.789  1.00  0.00    +0.068 HD
ATOM    109  H   UNK A   1      -9.492  11.426  -2.647  1.00  0.00    +0.059 HD
ATOM    110  H   UNK A   1      -9.993  10.843  -1.057  1.00  0.00    +0.059 HD
ATOM    111  H   UNK A   1     -11.737  12.487  -1.437  1.00  0.00    +0.210 HD
ATOM    112  H   UNK A   1     -13.766   9.986   0.756  1.00  0.00    +0.067 HD
ATOM    113  H   UNK A   1     -11.674  11.962   0.964  1.00  0.00    +0.041 HD
ATOM    114  H   UNK A   1     -12.965  12.593   1.983  1.00  0.00    +0.041 HD
ATOM    115  H   UNK A   1     -17.553  12.312   1.440  1.00  0.00    +0.066 HD
ATOM    116  H   UNK A   1     -17.486   9.903   1.199  1.00  0.00    +0.036 HD
ATOM    117  H   UNK A   1     -16.993   9.684   2.868  1.00  0.00    +0.036 HD
ATOM    118  H   UNK A   1     -19.932  12.081   3.030  1.00  0.00    +0.084 HD
ATOM    119  H   UNK A   1     -20.238  10.899   5.174  1.00  0.00    +0.167 HD
ATOM    120  H   UNK A   1     -20.339   8.362   4.915  1.00  0.00    +0.104 HD
ATOM    121  H   UNK A   1     -17.073  13.310   6.245  1.00  0.00    +0.065 HD
ATOM    122  H   UNK A   1     -20.022  13.496   5.346  1.00  0.00    +0.026 HD
ATOM    123  H   UNK A   1     -18.781  14.697   5.002  1.00  0.00    +0.026 HD
ATOM    124  H   UNK A   1     -19.300  14.434   6.655  1.00  0.00    +0.026 HD
ATOM    125  H   UNK A   1     -17.777  12.257  10.304  1.00  0.00    +0.066 HD
ATOM    126  H   UNK A   1     -19.169  10.654  11.038  1.00  0.00    +0.030 HD
ATOM    127  H   UNK A   1     -20.080  11.574   9.866  1.00  0.00    +0.030 HD
ATOM    128  H   UNK A   1     -18.961   9.254   8.470  1.00  0.00    +0.037 HD
ATOM    129  H   UNK A   1     -20.642   9.722   8.735  1.00  0.00    +0.037 HD
ATOM    130  H   UNK A   1     -18.717   7.139  11.324  1.00  0.00    +0.159 HD
ATOM    131  H   UNK A   1     -17.902   8.490  10.608  1.00  0.00    +0.159 HD
ATOM    132  H   UNK A   1     -14.294   9.489   9.474  1.00  0.00    +0.065 HD
ATOM    133  H   UNK A   1     -15.620   9.985   7.333  1.00  0.00    +0.026 HD
ATOM    134  H   UNK A   1     -14.600  11.411   7.081  1.00  0.00    +0.026 HD
ATOM    135  H   UNK A   1     -13.900   9.778   7.041  1.00  0.00    +0.026 HD
ATOM    136  H   UNK A   1     -10.246   9.826   7.698  1.00  0.00    +0.067 HD
ATOM    137  H   UNK A   1     -11.222  12.480   6.628  1.00  0.00    +0.041 HD
ATOM    138  H   UNK A   1     -12.080  10.976   6.186  1.00  0.00    +0.041 HD
ATOM    139  H   UNK A   1      -7.915  11.551  11.268  1.00  0.00    +0.064 HD
ATOM    140  H   UNK A   1      -9.553  12.224  11.196  1.00  0.00    +0.064 HD
ATOM    141  H   UNK A   1     -10.846  10.035  10.696  1.00  0.00    +0.296 HD
ATOM    142  H   UNK A   1      -7.025   9.190   1.112  1.00  0.00    +0.063 HD
ATOM    143  H   UNK A   1      -6.332  11.161  -0.140  1.00  0.00    +0.063 HD
ATOM    144  H   UNK A   1      -7.838  14.586   0.265  1.00  0.00    +0.043 HD
ATOM    145  H   UNK A   1      -7.685  13.459  -1.104  1.00  0.00    +0.043 HD
ATOM    146  H   UNK A   1      -9.354  13.478   1.871  1.00  0.00    +0.063 HD
ATOM    147  H   UNK A   1     -10.720  12.608   3.631  1.00  0.00    +0.058 HD
ATOM    148  H   UNK A   1      -8.346   8.781   3.864  1.00  0.00    +0.028 HD
ATOM    149  H   UNK A   1      -9.972   8.734   3.119  1.00  0.00    +0.028 HD
ATOM    150  H   UNK A   1      -8.620   8.026   2.296  1.00  0.00    +0.028 HD
ENDROOT
TORSDOF 0
ENDMDL
MODEL 3
REMARK VINA RESULT:      -3.5      6.322     16.463
REMARK  Generated by RDKit with Gasteiger charges
REMARK  --------------------------------------------------
ROOT
ATOM      1  N   UNK A   1      -0.280  20.004  -0.072  1.00  0.00    -0.131 N 
ATOM      2  C   UNK A   1      -1.301  19.446  -0.985  1.00  0.00    +0.121 C 
ATOM      3  C   UNK A   1      -0.746  19.503  -2.402  1.00  0.00    -0.037 C 
ATOM      4  C   UNK A   1      -1.608  18.003  -0.551  1.00  0.00    +0.262 C 
ATOM      5  O   UNK A   1      -0.714  17.219  -0.216  1.00  0.00    -0.271 OA
ATOM      6  N   UNK A   1      -2.931  17.802  -0.565  1.00  0.00    -0.236 N 
ATOM      7  C   UNK A   1      -3.392  16.625  -1.383  1.00  0.00    +0.143 C 
ATOM      8  C   UNK A   1      -4.924  16.319  -1.183  1.00  0.00    +0.025 C 
ATOM      9  S   UNK A   1      -5.396  15.593   0.496  1.00  0.00    -0.154 S 
ATOM     10  C   UNK A   1      -3.005  16.763  -2.912  1.00  0.00    +0.267 C 
ATOM     11  O   UNK A   1      -1.971  16.221  -3.329  1.00  0.00    -0.270 OA
ATOM     12  N   UNK A   1      -3.799  17.561  -3.656  1.00  0.00    -0.239 N 
ATOM     13  C   UNK A   1      -4.667  16.795  -4.621  1.00  0.00    +0.124 C 
ATOM     14  C   UNK A   1      -4.969  17.482  -5.997  1.00  0.00    +0.263 C 
ATOM     15  O   UNK A   1      -4.214  18.358  -6.451  1.00  0.00    -0.271 OA
ATOM     16  N   UNK A   1      -6.035  17.045  -6.724  1.00  0.00    -0.240 N 
ATOM     17  C   UNK A   1      -6.895  15.919  -6.233  1.00  0.00    +0.124 C 
ATOM     18  C   UNK A   1      -8.120  15.570  -7.161  1.00  0.00    +0.263 C 
ATOM     19  O   UNK A   1      -8.568  16.351  -8.011  1.00  0.00    -0.271 OA
ATOM     20  N   UNK A   1      -8.588  14.310  -6.971  1.00  0.00    -0.236 N 
ATOM     21  C   UNK A   1      -9.773  14.189  -5.995  1.00  0.00    +0.140 C 
ATOM     22  C   UNK A   1     -11.102  14.663  -6.695  1.00  0.00    +0.023 C 
ATOM     23  C   UNK A   1     -12.328  14.794  -5.821  1.00  0.00    +0.061 C 
ATOM     24  C   UNK A   1     -12.364  15.125  -4.476  1.00  0.00    +0.024 C 
ATOM     25  N   UNK A   1     -13.486  14.488  -4.010  1.00  0.00    -0.351 N 
ATOM     26  C   UNK A   1     -14.228  14.155  -5.113  1.00  0.00    +0.092 C 
ATOM     27  N   UNK A   1     -13.609  14.436  -6.247  1.00  0.00    -0.242 N 
ATOM     28  C   UNK A   1      -9.881  12.674  -5.423  1.00  0.00    +0.267 C 
ATOM     29  O   UNK A   1      -9.126  11.764  -5.784  1.00  0.00    -0.270 OA
ATOM     30  N   UNK A   1     -10.903  12.521  -4.547  1.00  0.00    -0.234 N 
ATOM     31  C   UNK A   1     -10.604  11.906  -3.220  1.00  0.00    +0.157 C 
ATOM     32  C   UNK A   1      -9.666  12.771  -2.341  1.00  0.00    +0.075 C 
ATOM     33  O   UNK A   1     -10.241  14.020  -1.951  1.00  0.00    -0.394 OA
ATOM     34  C   UNK A   1     -11.889  11.448  -2.385  1.00  0.00    +0.269 C 
ATOM     35  O   UNK A   1     -12.159  10.239  -2.332  1.00  0.00    -0.270 OA
ATOM     36  N   UNK A   1     -12.580  12.457  -1.789  1.00  0.00    -0.235 N 
ATOM     37  C   UNK A   1     -13.296  12.107  -0.461  1.00  0.00    +0.143 C 
ATOM     38  C   UNK A   1     -12.458  12.715   0.738  1.00  0.00    +0.027 C 
ATOM     39  S   UNK A   1     -12.010  11.563   2.165  1.00  0.00    -0.140 S 
ATOM     40  C   UNK A   1     -14.817  12.676  -0.507  1.00  0.00    +0.267 C 
ATOM     41  O   UNK A   1     -15.313  13.157  -1.532  1.00  0.00    -0.270 OA
ATOM     42  N   UNK A   1     -15.454  12.528   0.686  1.00  0.00    -0.236 N 
ATOM     43  C   UNK A   1     -16.976  12.488   0.694  1.00  0.00    +0.140 C 
ATOM     44  C   UNK A   1     -17.434  11.010   0.461  1.00  0.00    +0.023 C 
ATOM     45  C   UNK A   1     -18.903  10.657   0.602  1.00  0.00    +0.061 C 
ATOM     46  C   UNK A   1     -19.950  11.495   0.956  1.00  0.00    +0.024 C 
ATOM     47  N   UNK A   1     -20.448  10.790   2.043  1.00  0.00    -0.351 N 
ATOM     48  C   UNK A   1     -20.125   9.473   1.833  1.00  0.00    +0.092 C 
ATOM     49  N   UNK A   1     -19.310   9.338   0.811  1.00  0.00    -0.242 N 
ATOM     50  C   UNK A   1     -17.552  13.289   1.979  1.00  0.00    +0.267 C 
ATOM     51  O   UNK A   1     -17.584  14.528   1.923  1.00  0.00    -0.270 OA
ATOM     52  N   UNK A   1     -18.098  12.526   2.965  1.00  0.00    -0.236 N 
ATOM     53  C   UNK A   1     -18.613  13.207   4.205  1.00  0.00    +0.131 C 
ATOM     54  C   UNK A   1     -19.711  14.244   3.899  1.00  0.00    -0.033 C 
ATOM     55  C   UNK A   1     -19.300  12.193   5.222  1.00  0.00    +0.266 C 
ATOM     56  O   UNK A   1     -20.131  11.359   4.834  1.00  0.00    -0.270 OA
ATOM     57  N   UNK A   1     -19.072  12.570   6.499  1.00  0.00    -0.236 N 
ATOM     58  C   UNK A   1     -19.048  11.621   7.644  1.00  0.00    +0.135 C 
ATOM     59  C   UNK A   1     -20.379  10.835   7.834  1.00  0.00    -0.013 C 
ATOM     60  C   UNK A   1     -20.584   9.586   6.961  1.00  0.00    +0.029 C 
ATOM     61  C   UNK A   1     -20.847   8.316   7.757  1.00  0.00    +0.217 C 
ATOM     62  O   UNK A   1     -21.834   7.587   7.613  1.00  0.00    -0.275 OA
ATOM     63  N   UNK A   1     -19.888   8.001   8.673  1.00  0.00    -0.370 N 
ATOM     64  C   UNK A   1     -17.770  10.760   7.974  1.00  0.00    +0.266 C 
ATOM     65  O   UNK A   1     -17.871   9.533   8.128  1.00  0.00    -0.270 OA
ATOM     66  N   UNK A   1     -16.661  11.474   8.279  1.00  0.00    -0.236 N 
ATOM     67  C   UNK A   1     -15.378  10.846   7.763  1.00  0.00    +0.131 C 
ATOM     68  C   UNK A   1     -15.399  10.858   6.218  1.00  0.00    -0.033 C 
ATOM     69  C   UNK A   1     -14.017  11.525   8.246  1.00  0.00    +0.266 C 
ATOM     70  O   UNK A   1     -13.974  12.545   8.934  1.00  0.00    -0.270 OA
ATOM     71  N   UNK A   1     -12.946  10.754   7.925  1.00  0.00    -0.235 N 
ATOM     72  C   UNK A   1     -11.697  11.382   7.326  1.00  0.00    +0.143 C 
ATOM     73  C   UNK A   1     -11.870  12.105   5.917  1.00  0.00    +0.027 C 
ATOM     74  S   UNK A   1     -10.314  11.872   4.839  1.00  0.00    -0.140 S 
ATOM     75  C   UNK A   1     -10.845  12.159   8.384  1.00  0.00    +0.267 C 
ATOM     76  O   UNK A   1     -10.642  13.372   8.363  1.00  0.00    -0.270 OA
ATOM     77  N   UNK A   1     -10.300  11.320   9.290  1.00  0.00    -0.238 N 
ATOM     78  C   UNK A   1     -10.452  11.803  10.664  1.00  0.00    +0.140 C 
ATOM     79  C   UNK A   1     -11.037  10.660  11.471  1.00  0.00    +0.325 C 
ATOM     80  O   UNK A   1     -10.655  10.348  12.604  1.00  0.00    -0.250 OA
ATOM     81  O   UNK A   1     -12.056  10.019  10.852  1.00  0.00    -0.480 OA
ATOM     82  C   UNK A   1      -7.349  11.473   1.295  1.00  0.00    -0.059 C 
ATOM     83  C   UNK A   1      -6.904  12.676   0.751  1.00  0.00    -0.058 C 
ATOM     84  C   UNK A   1      -7.634  13.852   0.929  1.00  0.00    -0.038 C 
ATOM     85  C   UNK A   1      -7.187  15.122   0.185  1.00  0.00    +0.019 C 
ATOM     86  C   UNK A   1      -8.851  13.766   1.674  1.00  0.00    -0.053 C 
ATOM     87  C   UNK A   1      -9.334  12.547   2.254  1.00  0.00    -0.022 C 
ATOM     88  C   UNK A   1     -10.700  12.545   3.053  1.00  0.00    +0.076 C 
ATOM     89  C   UNK A   1      -8.552  11.382   2.031  1.00  0.00    -0.046 C 
ATOM     90  C   UNK A   1      -8.894  10.011   2.554  1.00  0.00    -0.039 C 
ATOM     91  H   UNK A   1      -2.186  20.086  -0.899  1.00  0.00    +0.060 HD
ATOM     92  H   UNK A   1      -0.384  20.511  -2.643  1.00  0.00    +0.025 HD
ATOM     93  H   UNK A   1      -1.520  19.263  -3.135  1.00  0.00    +0.025 HD
ATOM     94  H   UNK A   1       0.085  18.803  -2.543  1.00  0.00    +0.025 HD
ATOM     95  H   UNK A   1      -2.869  15.714  -1.052  1.00  0.00    +0.067 HD
ATOM     96  H   UNK A   1      -5.522  17.225  -1.323  1.00  0.00    +0.041 HD
ATOM     97  H   UNK A   1      -5.238  15.581  -1.928  1.00  0.00    +0.041 HD
ATOM     98  H   UNK A   1      -4.243  15.813  -4.863  1.00  0.00    +0.062 HD
ATOM     99  H   UNK A   1      -5.622  16.625  -4.111  1.00  0.00    +0.062 HD
ATOM    100  H   UNK A   1      -7.342  16.156  -5.260  1.00  0.00    +0.062 HD
ATOM    101  H   UNK A   1      -6.292  15.007  -6.127  1.00  0.00    +0.062 HD
ATOM    102  H   UNK A   1      -9.574  14.821  -5.115  1.00  0.00    +0.066 HD
ATOM    103  H   UNK A   1     -10.943  15.638  -7.170  1.00  0.00    +0.036 HD
ATOM    104  H   UNK A   1     -11.333  13.961  -7.507  1.00  0.00    +0.036 HD
ATOM    105  H   UNK A   1     -11.565  15.398  -3.800  1.00  0.00    +0.084 HD
ATOM    106  H   UNK A   1     -13.621  14.112  -3.066  1.00  0.00    +0.167 HD
ATOM    107  H   UNK A   1     -15.170  13.643  -4.999  1.00  0.00    +0.104 HD
ATOM    108  H   UNK A   1     -10.067  10.960  -3.388  1.00  0.00    +0.068 HD
ATOM    109  H   UNK A   1      -8.722  12.966  -2.854  1.00  0.00    +0.059 HD
ATOM    110  H   UNK A   1      -9.437  12.230  -1.416  1.00  0.00    +0.059 HD
ATOM    111  H   UNK A   1     -11.203  13.798  -1.973  1.00  0.00    +0.210 HD
ATOM    112  H   UNK A   1     -13.390  11.020  -0.337  1.00  0.00    +0.067 HD
ATOM    113  H   UNK A   1     -11.503  13.088   0.361  1.00  0.00    +0.041 HD
ATOM    114  H   UNK A   1     -12.985  13.562   1.186  1.00  0.00    +0.041 HD
ATOM    115  H   UNK A   1     -17.389  13.066  -0.149  1.00  0.00    +0.066 HD
ATOM    116  H   UNK A   1     -17.117  10.691  -0.541  1.00  0.00    +0.036 HD
ATOM    117  H   UNK A   1     -16.893  10.369   1.169  1.00  0.00    +0.036 HD
ATOM    118  H   UNK A   1     -19.978  12.575   0.992  1.00  0.00    +0.084 HD
ATOM    119  H   UNK A   1     -20.552  11.210   2.966  1.00  0.00    +0.167 HD
ATOM    120  H   UNK A   1     -20.433   8.701   2.519  1.00  0.00    +0.104 HD
ATOM    121  H   UNK A   1     -17.783  13.704   4.725  1.00  0.00    +0.065 HD
ATOM    122  H   UNK A   1     -20.548  13.794   3.352  1.00  0.00    +0.026 HD
ATOM    123  H   UNK A   1     -19.353  15.087   3.307  1.00  0.00    +0.026 HD
ATOM    124  H   UNK A   1     -20.120  14.663   4.826  1.00  0.00    +0.026 HD
ATOM    125  H   UNK A   1     -19.075  12.292   8.522  1.00  0.00    +0.066 HD
ATOM    126  H   UNK A   1     -20.456  10.560   8.895  1.00  0.00    +0.030 HD
ATOM    127  H   UNK A   1     -21.220  11.517   7.652  1.00  0.00    +0.030 HD
ATOM    128  H   UNK A   1     -19.728   9.383   6.310  1.00  0.00    +0.037 HD
ATOM    129  H   UNK A   1     -21.458   9.733   6.316  1.00  0.00    +0.037 HD
ATOM    130  H   UNK A   1     -19.815   7.064   9.011  1.00  0.00    +0.159 HD
ATOM    131  H   UNK A   1     -18.988   8.512   8.540  1.00  0.00    +0.159 HD
ATOM    132  H   UNK A   1     -15.319   9.801   8.109  1.00  0.00    +0.065 HD
ATOM    133  H   UNK A   1     -16.303  10.390   5.813  1.00  0.00    +0.026 HD
ATOM    134  H   UNK A   1     -15.357  11.887   5.836  1.00  0.00    +0.026 HD
ATOM    135  H   UNK A   1     -14.549  10.304   5.804  1.00  0.00    +0.026 HD
ATOM    136  H   UNK A   1     -11.066  10.507   7.076  1.00  0.00    +0.067 HD
ATOM    137  H   UNK A   1     -12.033  13.178   6.041  1.00  0.00    +0.041 HD
ATOM    138  H   UNK A   1     -12.699  11.668   5.357  1.00  0.00    +0.041 HD
ATOM    139  H   UNK A   1      -9.485  12.071  11.101  1.00  0.00    +0.064 HD
ATOM    140  H   UNK A   1     -11.130  12.653  10.798  1.00  0.00    +0.064 HD
ATOM    141  H   UNK A   1     -12.167  10.442   9.935  1.00  0.00    +0.296 HD
ATOM    142  H   UNK A   1      -6.762  10.581   1.107  1.00  0.00    +0.063 HD
ATOM    143  H   UNK A   1      -6.010  12.682   0.131  1.00  0.00    +0.063 HD
ATOM    144  H   UNK A   1      -7.795  15.973   0.509  1.00  0.00    +0.043 HD
ATOM    145  H   UNK A   1      -7.340  14.968  -0.889  1.00  0.00    +0.043 HD
ATOM    146  H   UNK A   1      -9.476  14.656   1.753  1.00  0.00    +0.063 HD
ATOM    147  H   UNK A   1     -11.052  13.573   3.190  1.00  0.00    +0.058 HD
ATOM    148  H   UNK A   1      -8.489   9.880   3.560  1.00  0.00    +0.028 HD
ATOM    149  H   UNK A   1      -9.963   9.800   2.547  1.00  0.00    +0.028 HD
ATOM    150  H   UNK A   1      -8.447   9.237   1.919  1.00  0.00    +0.028 HD
ENDROOT
TORSDOF 0
ENDMDL
