REMARK  Generated by RDKit with Gasteiger charges
REMARK  --------------------------------------------------
ROOT
ATOM      1  N   UNK A   1      -1.896  -9.215  -5.630  1.00  0.00    -0.131 N 
ATOM      2  C   UNK A   1      -1.379  -8.257  -4.618  1.00  0.00    +0.121 C 
ATOM      3  C   UNK A   1      -1.014  -9.097  -3.397  1.00  0.00    -0.037 C 
ATOM      4  C   UNK A   1      -0.196  -7.479  -5.250  1.00  0.00    +0.262 C 
ATOM      5  O   UNK A   1       0.015  -7.501  -6.470  1.00  0.00    -0.271 OA
ATOM      6  N   UNK A   1       0.616  -6.905  -4.353  1.00  0.00    -0.236 N 
ATOM      7  C   UNK A   1       0.200  -5.546  -3.784  1.00  0.00    +0.143 C 
ATOM      8  C   UNK A   1       0.022  -4.519  -4.934  1.00  0.00    +0.025 C 
ATOM      9  S   UNK A   1      -0.367  -2.728  -4.689  1.00  0.00    -0.154 S 
ATOM     10  C   UNK A   1      -1.020  -5.575  -2.817  1.00  0.00    +0.267 C 
ATOM     11  O   UNK A   1      -2.173  -5.540  -3.258  1.00  0.00    -0.270 OA
ATOM     12  N   UNK A   1      -0.678  -5.760  -1.526  1.00  0.00    -0.236 N 
ATOM     13  C   UNK A   1      -0.874  -4.551  -0.629  1.00  0.00    +0.135 C 
ATOM     14  C   UNK A   1      -2.144  -4.730   0.328  1.00  0.00    -0.012 C 
ATOM     15  C   UNK A   1      -3.556  -4.304  -0.224  1.00  0.00    +0.031 C 
ATOM     16  C   UNK A   1      -4.773  -4.433   0.785  1.00  0.00    +0.242 C 
ATOM     17  O   UNK A   1      -4.670  -5.066   1.841  1.00  0.00    -0.273 OA
ATOM     18  C   UNK A   1       0.484  -4.395   0.273  1.00  0.00    +0.266 C 
ATOM     19  O   UNK A   1       0.634  -5.091   1.289  1.00  0.00    -0.270 OA
ATOM     20  N   UNK A   1      -5.904  -3.822   0.327  1.00  0.00    -0.238 N 
ATOM     21  C   UNK A   1      -6.889  -3.417   1.416  1.00  0.00    +0.138 C 
ATOM     22  C   UNK A   1      -6.322  -2.214   2.223  1.00  0.00    +0.004 C 
ATOM     23  C   UNK A   1      -6.736  -2.204   3.691  1.00  0.00    -0.045 C 
ATOM     24  C   UNK A   1      -7.722  -1.328   4.155  1.00  0.00    -0.059 C 
ATOM     25  C   UNK A   1      -8.079  -1.316   5.505  1.00  0.00    -0.062 C 
ATOM     26  C   UNK A   1      -7.452  -2.181   6.403  1.00  0.00    -0.062 C 
ATOM     27  C   UNK A   1      -6.472  -3.064   5.948  1.00  0.00    -0.062 C 
ATOM     28  C   UNK A   1      -6.119  -3.077   4.597  1.00  0.00    -0.059 C 
ATOM     29  C   UNK A   1      -8.355  -3.211   0.830  1.00  0.00    +0.267 C 
ATOM     30  O   UNK A   1      -8.976  -4.165   0.341  1.00  0.00    -0.270 OA
ATOM     31  N   UNK A   1       1.355  -3.449  -0.192  1.00  0.00    -0.236 N 
ATOM     32  C   UNK A   1       2.678  -3.261   0.573  1.00  0.00    +0.138 C 
ATOM     33  C   UNK A   1       3.563  -4.531   0.414  1.00  0.00    +0.004 C 
ATOM     34  C   UNK A   1       4.320  -4.947   1.668  1.00  0.00    -0.045 C 
ATOM     35  C   UNK A   1       3.782  -5.911   2.529  1.00  0.00    -0.059 C 
ATOM     36  C   UNK A   1       4.465  -6.291   3.686  1.00  0.00    -0.062 C 
ATOM     37  C   UNK A   1       5.690  -5.701   4.000  1.00  0.00    -0.062 C 
ATOM     38  C   UNK A   1       6.221  -4.719   3.160  1.00  0.00    -0.062 C 
ATOM     39  C   UNK A   1       5.540  -4.349   2.000  1.00  0.00    -0.059 C 
ATOM     40  C   UNK A   1       3.570  -2.031   0.020  1.00  0.00    +0.267 C 
ATOM     41  O   UNK A   1       3.718  -1.844  -1.192  1.00  0.00    -0.270 OA
ATOM     42  N   UNK A   1      -8.919  -1.995   1.007  1.00  0.00    -0.235 N 
ATOM     43  C   UNK A   1      -8.785  -1.085  -0.178  1.00  0.00    +0.143 C 
ATOM     44  C   UNK A   1      -9.600  -1.589  -1.393  1.00  0.00    +0.058 C 
ATOM     45  C   UNK A   1      -8.901  -2.445  -2.449  1.00  0.00    +0.220 C 
ATOM     46  O   UNK A   1      -9.485  -2.761  -3.499  1.00  0.00    -0.275 OA
ATOM     47  N   UNK A   1      -7.609  -2.813  -2.248  1.00  0.00    -0.370 N 
ATOM     48  C   UNK A   1      -9.285   0.374   0.167  1.00  0.00    +0.267 C 
ATOM     49  O   UNK A   1     -10.470   0.719   0.086  1.00  0.00    -0.270 OA
ATOM     50  N   UNK A   1       4.230  -1.354   1.006  1.00  0.00    -0.235 N 
ATOM     51  C   UNK A   1       4.813   0.007   0.629  1.00  0.00    +0.143 C 
ATOM     52  C   UNK A   1       3.909   1.133   1.209  1.00  0.00    +0.027 C 
ATOM     53  S   UNK A   1       2.112   1.242   0.664  1.00  0.00    -0.140 S 
ATOM     54  C   UNK A   1       6.389   0.123   1.072  1.00  0.00    +0.267 C 
ATOM     55  O   UNK A   1       7.178  -0.790   0.794  1.00  0.00    -0.270 OA
ATOM     56  N   UNK A   1      -8.264   1.162   0.535  1.00  0.00    -0.236 N 
ATOM     57  C   UNK A   1      -8.249   2.557   0.047  1.00  0.00    +0.136 C 
ATOM     58  C   UNK A   1      -8.202   3.504   1.270  1.00  0.00    +0.004 C 
ATOM     59  C   UNK A   1      -8.393   4.971   0.932  1.00  0.00    -0.045 C 
ATOM     60  C   UNK A   1      -7.272   5.768   0.670  1.00  0.00    -0.055 C 
ATOM     61  C   UNK A   1      -7.419   7.089   0.255  1.00  0.00    -0.020 C 
ATOM     62  C   UNK A   1      -8.699   7.622   0.114  1.00  0.00    +0.115 C 
ATOM     63  O   UNK A   1      -8.865   8.894  -0.370  1.00  0.00    -0.508 OA
ATOM     64  C   UNK A   1      -9.827   6.861   0.401  1.00  0.00    -0.020 C 
ATOM     65  C   UNK A   1      -9.671   5.529   0.802  1.00  0.00    -0.055 C 
ATOM     66  C   UNK A   1      -7.073   2.895  -0.936  1.00  0.00    +0.248 C 
ATOM     67  O   UNK A   1      -7.346   3.548  -1.961  1.00  0.00    -0.272 OA
ATOM     68  N   UNK A   1       6.765   1.312   1.644  1.00  0.00    -0.236 N 
ATOM     69  C   UNK A   1       8.249   1.679   1.467  1.00  0.00    +0.138 C 
ATOM     70  C   UNK A   1       8.480   2.236   0.031  1.00  0.00    +0.004 C 
ATOM     71  C   UNK A   1       7.855   3.584  -0.301  1.00  0.00    -0.045 C 
ATOM     72  C   UNK A   1       8.568   4.774  -0.102  1.00  0.00    -0.059 C 
ATOM     73  C   UNK A   1       7.984   6.010  -0.392  1.00  0.00    -0.062 C 
ATOM     74  C   UNK A   1       6.677   6.069  -0.876  1.00  0.00    -0.062 C 
ATOM     75  C   UNK A   1       5.954   4.891  -1.059  1.00  0.00    -0.062 C 
ATOM     76  C   UNK A   1       6.542   3.657  -0.780  1.00  0.00    -0.059 C 
ATOM     77  C   UNK A   1       8.916   2.638   2.560  1.00  0.00    +0.267 C 
ATOM     78  O   UNK A   1       8.280   3.136   3.494  1.00  0.00    -0.270 OA
ATOM     79  N   UNK A   1      -5.754   2.591  -0.609  1.00  0.00    -0.329 N 
ATOM     80  C   UNK A   1      -5.395   1.504   0.305  1.00  0.00    +0.021 C 
ATOM     81  C   UNK A   1      -3.917   1.244   0.067  1.00  0.00    -0.033 C 
ATOM     82  C   UNK A   1      -3.795   1.547  -1.418  1.00  0.00    -0.022 C 
ATOM     83  C   UNK A   1      -4.626   2.836  -1.552  1.00  0.00    +0.113 C 
ATOM     84  C   UNK A   1      -3.731   4.112  -1.255  1.00  0.00    +0.264 C 
ATOM     85  O   UNK A   1      -4.032   4.978  -0.433  1.00  0.00    -0.271 OA
ATOM     86  N   UNK A   1      10.265   2.795   2.361  1.00  0.00    -0.236 N 
ATOM     87  C   UNK A   1      11.014   3.463   3.472  1.00  0.00    +0.131 C 
ATOM     88  C   UNK A   1      11.237   2.448   4.606  1.00  0.00    -0.033 C 
ATOM     89  C   UNK A   1      12.404   4.044   3.022  1.00  0.00    +0.266 C 
ATOM     90  O   UNK A   1      12.925   3.873   1.918  1.00  0.00    -0.271 OA
ATOM     91  N   UNK A   1      -2.683   4.179  -2.099  1.00  0.00    -0.233 N 
ATOM     92  C   UNK A   1      -1.368   4.500  -1.456  1.00  0.00    +0.160 C 
ATOM     93  C   UNK A   1      -0.390   3.271  -1.449  1.00  0.00    +0.028 C 
ATOM     94  S   UNK A   1       1.320   3.712  -0.873  1.00  0.00    -0.140 S 
ATOM     95  C   UNK A   1      -0.803   5.652  -2.277  1.00  0.00    +0.329 C 
ATOM     96  O   UNK A   1      -0.759   6.841  -1.971  1.00  0.00    -0.250 OA
ATOM     97  O   UNK A   1      -0.334   5.306  -3.500  1.00  0.00    -0.480 OA
ATOM     98  N   UNK A   1      13.013   4.746   4.004  1.00  0.00    -0.238 N 
ATOM     99  C   UNK A   1      14.004   5.726   3.542  1.00  0.00    +0.140 C 
ATOM    100  C   UNK A   1      15.387   5.167   3.279  1.00  0.00    +0.325 C 
ATOM    101  O   UNK A   1      16.430   5.701   3.660  1.00  0.00    -0.250 OA
ATOM    102  O   UNK A   1      15.406   4.067   2.494  1.00  0.00    -0.480 OA
ATOM    103  C   UNK A   1       2.256   1.014  -4.691  1.00  0.00    -0.059 C 
ATOM    104  C   UNK A   1       1.698  -0.261  -4.643  1.00  0.00    -0.058 C 
ATOM    105  C   UNK A   1       1.267  -0.803  -3.429  1.00  0.00    -0.038 C 
ATOM    106  C   UNK A   1       0.795  -2.260  -3.325  1.00  0.00    +0.019 C 
ATOM    107  C   UNK A   1       1.421  -0.023  -2.257  1.00  0.00    -0.053 C 
ATOM    108  C   UNK A   1       2.008   1.268  -2.263  1.00  0.00    -0.022 C 
ATOM    109  C   UNK A   1       2.262   2.052  -0.965  1.00  0.00    +0.076 C 
ATOM    110  C   UNK A   1       2.442   1.774  -3.521  1.00  0.00    -0.046 C 
ATOM    111  C   UNK A   1       3.118   3.108  -3.672  1.00  0.00    -0.039 C 
ATOM    112  H   UNK A   1      -2.194  -7.566  -4.401  1.00  0.00    +0.060 HD
ATOM    113  H   UNK A   1      -0.199  -9.794  -3.628  1.00  0.00    +0.025 HD
ATOM    114  H   UNK A   1      -0.679  -8.475  -2.562  1.00  0.00    +0.025 HD
ATOM    115  H   UNK A   1      -1.873  -9.678  -3.043  1.00  0.00    +0.025 HD
ATOM    116  H   UNK A   1       1.056  -5.185  -3.192  1.00  0.00    +0.067 HD
ATOM    117  H   UNK A   1      -0.780  -4.866  -5.596  1.00  0.00    +0.041 HD
ATOM    118  H   UNK A   1       0.933  -4.528  -5.545  1.00  0.00    +0.041 HD
ATOM    119  H   UNK A   1      -1.016  -3.616  -1.182  1.00  0.00    +0.066 HD
ATOM    120  H   UNK A   1      -1.967  -4.135   1.235  1.00  0.00    +0.030 HD
ATOM    121  H   UNK A   1      -2.199  -5.773   0.665  1.00  0.00    +0.030 HD
ATOM    122  H   UNK A   1      -3.795  -4.913  -1.102  1.00  0.00    +0.037 HD
ATOM    123  H   UNK A   1      -3.490  -3.253  -0.533  1.00  0.00    +0.037 HD
ATOM    124  H   UNK A   1      -7.029  -4.262   2.110  1.00  0.00    +0.066 HD
ATOM    125  H   UNK A   1      -6.579  -1.256   1.759  1.00  0.00    +0.034 HD
ATOM    126  H   UNK A   1      -5.223  -2.223   2.219  1.00  0.00    +0.034 HD
ATOM    127  H   UNK A   1      -8.210  -0.669   3.436  1.00  0.00    +0.063 HD
ATOM    128  H   UNK A   1      -8.850  -0.628   5.833  1.00  0.00    +0.062 HD
ATOM    129  H   UNK A   1      -7.729  -2.173   7.450  1.00  0.00    +0.062 HD
ATOM    130  H   UNK A   1      -5.969  -3.747   6.623  1.00  0.00    +0.062 HD
ATOM    131  H   UNK A   1      -5.358  -3.762   4.219  1.00  0.00    +0.063 HD
ATOM    132  H   UNK A   1       2.453  -3.063   1.631  1.00  0.00    +0.066 HD
ATOM    133  H   UNK A   1       4.298  -4.394  -0.392  1.00  0.00    +0.034 HD
ATOM    134  H   UNK A   1       2.971  -5.397   0.087  1.00  0.00    +0.034 HD
ATOM    135  H   UNK A   1       2.795  -6.313   2.294  1.00  0.00    +0.063 HD
ATOM    136  H   UNK A   1       4.005  -7.012   4.352  1.00  0.00    +0.062 HD
ATOM    137  H   UNK A   1       6.204  -5.955   4.916  1.00  0.00    +0.062 HD
ATOM    138  H   UNK A   1       7.134  -4.189   3.409  1.00  0.00    +0.062 HD
ATOM    139  H   UNK A   1       5.918  -3.533   1.377  1.00  0.00    +0.063 HD
ATOM    140  H   UNK A   1      -7.732  -0.982  -0.476  1.00  0.00    +0.066 HD
ATOM    141  H   UNK A   1      -9.964  -0.722  -1.963  1.00  0.00    +0.039 HD
ATOM    142  H   UNK A   1     -10.487  -2.142  -1.062  1.00  0.00    +0.039 HD
ATOM    143  H   UNK A   1      -7.239  -2.859  -1.287  1.00  0.00    +0.159 HD
ATOM    144  H   UNK A   1      -7.173  -3.500  -2.837  1.00  0.00    +0.159 HD
ATOM    145  H   UNK A   1       4.855   0.155  -0.460  1.00  0.00    +0.067 HD
ATOM    146  H   UNK A   1       4.344   2.120   1.026  1.00  0.00    +0.041 HD
ATOM    147  H   UNK A   1       3.867   1.020   2.298  1.00  0.00    +0.041 HD
ATOM    148  H   UNK A   1      -9.163   2.787  -0.521  1.00  0.00    +0.066 HD
ATOM    149  H   UNK A   1      -7.257   3.392   1.820  1.00  0.00    +0.034 HD
ATOM    150  H   UNK A   1      -8.984   3.221   1.989  1.00  0.00    +0.034 HD
ATOM    151  H   UNK A   1      -6.274   5.324   0.713  1.00  0.00    +0.063 HD
ATOM    152  H   UNK A   1      -6.519   7.642   0.010  1.00  0.00    +0.066 HD
ATOM    153  H   UNK A   1      -8.014   9.080  -0.810  1.00  0.00    +0.293 HD
ATOM    154  H   UNK A   1     -10.818   7.273   0.266  1.00  0.00    +0.066 HD
ATOM    155  H   UNK A   1     -10.538   4.895   0.965  1.00  0.00    +0.063 HD
ATOM    156  H   UNK A   1       8.846   0.758   1.557  1.00  0.00    +0.066 HD
ATOM    157  H   UNK A   1       9.557   2.313  -0.168  1.00  0.00    +0.034 HD
ATOM    158  H   UNK A   1       8.121   1.507  -0.707  1.00  0.00    +0.034 HD
ATOM    159  H   UNK A   1       9.563   4.719   0.335  1.00  0.00    +0.063 HD
ATOM    160  H   UNK A   1       8.544   6.914  -0.192  1.00  0.00    +0.062 HD
ATOM    161  H   UNK A   1       6.201   7.022  -1.063  1.00  0.00    +0.062 HD
ATOM    162  H   UNK A   1       4.914   4.915  -1.375  1.00  0.00    +0.062 HD
ATOM    163  H   UNK A   1       5.966   2.734  -0.875  1.00  0.00    +0.063 HD
ATOM    164  H   UNK A   1      -5.611   1.778   1.341  1.00  0.00    +0.049 HD
ATOM    165  H   UNK A   1      -5.946   0.603   0.025  1.00  0.00    +0.049 HD
ATOM    166  H   UNK A   1      -3.626   0.222   0.322  1.00  0.00    +0.029 HD
ATOM    167  H   UNK A   1      -3.302   1.935   0.654  1.00  0.00    +0.029 HD
ATOM    168  H   UNK A   1      -2.754   1.620  -1.739  1.00  0.00    +0.029 HD
ATOM    169  H   UNK A   1      -4.265   0.743  -1.997  1.00  0.00    +0.029 HD
ATOM    170  H   UNK A   1      -5.018   2.943  -2.570  1.00  0.00    +0.064 HD
ATOM    171  H   UNK A   1      10.446   4.322   3.855  1.00  0.00    +0.065 HD
ATOM    172  H   UNK A   1      10.300   1.973   4.921  1.00  0.00    +0.026 HD
ATOM    173  H   UNK A   1      11.669   2.930   5.488  1.00  0.00    +0.026 HD
ATOM    174  H   UNK A   1      11.923   1.650   4.299  1.00  0.00    +0.026 HD
ATOM    175  H   UNK A   1      -1.462   4.863  -0.424  1.00  0.00    +0.068 HD
ATOM    176  H   UNK A   1      -0.781   2.495  -0.781  1.00  0.00    +0.041 HD
ATOM    177  H   UNK A   1      -0.315   2.852  -2.458  1.00  0.00    +0.041 HD
ATOM    178  H   UNK A   1      -0.026   6.164  -3.822  1.00  0.00    +0.296 HD
ATOM    179  H   UNK A   1      14.124   6.493   4.318  1.00  0.00    +0.064 HD
ATOM    180  H   UNK A   1      13.689   6.273   2.644  1.00  0.00    +0.064 HD
ATOM    181  H   UNK A   1      14.438   3.850   2.306  1.00  0.00    +0.296 HD
ATOM    182  H   UNK A   1       2.589   1.395  -5.649  1.00  0.00    +0.063 HD
ATOM    183  H   UNK A   1       1.631  -0.854  -5.547  1.00  0.00    +0.063 HD
ATOM    184  H   UNK A   1       1.676  -2.908  -3.340  1.00  0.00    +0.043 HD
ATOM    185  H   UNK A   1       0.245  -2.392  -2.396  1.00  0.00    +0.043 HD
ATOM    186  H   UNK A   1       1.153  -0.497  -1.307  1.00  0.00    +0.063 HD
ATOM    187  H   UNK A   1       3.309   2.364  -1.007  1.00  0.00    +0.058 HD
ATOM    188  H   UNK A   1       3.645   3.178  -4.631  1.00  0.00    +0.028 HD
ATOM    189  H   UNK A   1       2.384   3.918  -3.646  1.00  0.00    +0.028 HD
ATOM    190  H   UNK A   1       3.880   3.262  -2.905  1.00  0.00    +0.028 HD
ENDROOT
TORSDOF 0