REMARK  Generated by RDKit with Gasteiger charges
REMARK  --------------------------------------------------
ROOT
ATOM      1  N   UNK A   1     -10.330   8.649   2.090  1.00  0.00    -0.131 N 
ATOM      2  C   UNK A   1     -10.098   7.471   1.226  1.00  0.00    +0.121 C 
ATOM      3  C   UNK A   1     -11.232   7.399   0.212  1.00  0.00    -0.037 C 
ATOM      4  C   UNK A   1      -8.731   7.630   0.540  1.00  0.00    +0.262 C 
ATOM      5  O   UNK A   1      -8.359   8.710   0.071  1.00  0.00    -0.271 OA
ATOM      6  N   UNK A   1      -8.064   6.470   0.592  1.00  0.00    -0.236 N 
ATOM      7  C   UNK A   1      -7.583   5.947  -0.735  1.00  0.00    +0.143 C 
ATOM      8  C   UNK A   1      -6.630   4.703  -0.579  1.00  0.00    +0.025 C 
ATOM      9  S   UNK A   1      -4.916   5.075   0.123  1.00  0.00    -0.154 S 
ATOM     10  C   UNK A   1      -8.773   5.666  -1.741  1.00  0.00    +0.267 C 
ATOM     11  O   UNK A   1      -9.083   6.531  -2.573  1.00  0.00    -0.270 OA
ATOM     12  N   UNK A   1      -9.446   4.511  -1.557  1.00  0.00    -0.239 N 
ATOM     13  C   UNK A   1      -9.167   3.488  -2.628  1.00  0.00    +0.124 C 
ATOM     14  C   UNK A   1     -10.354   2.547  -3.031  1.00  0.00    +0.263 C 
ATOM     15  O   UNK A   1     -11.532   2.887  -2.833  1.00  0.00    -0.271 OA
ATOM     16  N   UNK A   1     -10.071   1.380  -3.674  1.00  0.00    -0.240 N 
ATOM     17  C   UNK A   1      -8.658   1.006  -4.009  1.00  0.00    +0.124 C 
ATOM     18  C   UNK A   1      -8.493  -0.400  -4.702  1.00  0.00    +0.263 C 
ATOM     19  O   UNK A   1      -9.360  -1.282  -4.656  1.00  0.00    -0.271 OA
ATOM     20  N   UNK A   1      -7.334  -0.516  -5.399  1.00  0.00    -0.236 N 
ATOM     21  C   UNK A   1      -6.170  -1.174  -4.635  1.00  0.00    +0.140 C 
ATOM     22  C   UNK A   1      -6.380  -2.734  -4.569  1.00  0.00    +0.023 C 
ATOM     23  C   UNK A   1      -5.432  -3.516  -3.688  1.00  0.00    +0.061 C 
ATOM     24  C   UNK A   1      -4.816  -3.077  -2.528  1.00  0.00    +0.024 C 
ATOM     25  N   UNK A   1      -3.642  -3.786  -2.490  1.00  0.00    -0.351 N 
ATOM     26  C   UNK A   1      -3.792  -4.830  -3.366  1.00  0.00    +0.092 C 
ATOM     27  N   UNK A   1      -4.930  -4.772  -4.037  1.00  0.00    -0.242 N 
ATOM     28  C   UNK A   1      -4.751  -0.768  -5.309  1.00  0.00    +0.267 C 
ATOM     29  O   UNK A   1      -4.664  -0.065  -6.322  1.00  0.00    -0.270 OA
ATOM     30  N   UNK A   1      -3.693  -1.314  -4.661  1.00  0.00    -0.234 N 
ATOM     31  C   UNK A   1      -2.584  -0.407  -4.240  1.00  0.00    +0.157 C 
ATOM     32  C   UNK A   1      -3.011   0.626  -3.168  1.00  0.00    +0.075 C 
ATOM     33  O   UNK A   1      -3.382   0.034  -1.920  1.00  0.00    -0.394 OA
ATOM     34  C   UNK A   1      -1.238  -1.150  -3.797  1.00  0.00    +0.269 C 
ATOM     35  O   UNK A   1      -0.278  -1.151  -4.582  1.00  0.00    -0.270 OA
ATOM     36  N   UNK A   1      -1.274  -1.721  -2.563  1.00  0.00    -0.235 N 
ATOM     37  C   UNK A   1       0.070  -1.777  -1.794  1.00  0.00    +0.143 C 
ATOM     38  C   UNK A   1       0.054  -0.659  -0.671  1.00  0.00    +0.027 C 
ATOM     39  S   UNK A   1       1.527   0.519  -0.588  1.00  0.00    -0.140 S 
ATOM     40  C   UNK A   1       0.277  -3.268  -1.184  1.00  0.00    +0.267 C 
ATOM     41  O   UNK A   1      -0.476  -4.207  -1.464  1.00  0.00    -0.270 OA
ATOM     42  N   UNK A   1       1.368  -3.343  -0.376  1.00  0.00    -0.236 N 
ATOM     43  C   UNK A   1       2.020  -4.702  -0.163  1.00  0.00    +0.140 C 
ATOM     44  C   UNK A   1       3.062  -4.936  -1.306  1.00  0.00    +0.023 C 
ATOM     45  C   UNK A   1       3.986  -6.138  -1.234  1.00  0.00    +0.061 C 
ATOM     46  C   UNK A   1       4.063  -7.094  -0.232  1.00  0.00    +0.024 C 
ATOM     47  N   UNK A   1       5.410  -6.983   0.085  1.00  0.00    -0.351 N 
ATOM     48  C   UNK A   1       6.040  -6.535  -1.048  1.00  0.00    +0.092 C 
ATOM     49  N   UNK A   1       5.172  -6.180  -1.969  1.00  0.00    -0.242 N 
ATOM     50  C   UNK A   1       2.502  -4.859   1.376  1.00  0.00    +0.267 C 
ATOM     51  O   UNK A   1       1.643  -5.137   2.227  1.00  0.00    -0.270 OA
ATOM     52  N   UNK A   1       3.845  -4.821   1.589  1.00  0.00    -0.236 N 
ATOM     53  C   UNK A   1       4.356  -4.919   3.002  1.00  0.00    +0.131 C 
ATOM     54  C   UNK A   1       3.914  -6.218   3.704  1.00  0.00    -0.033 C 
ATOM     55  C   UNK A   1       5.946  -4.950   3.080  1.00  0.00    +0.266 C 
ATOM     56  O   UNK A   1       6.610  -5.699   2.348  1.00  0.00    -0.270 OA
ATOM     57  N   UNK A   1       6.382  -4.309   4.186  1.00  0.00    -0.236 N 
ATOM     58  C   UNK A   1       7.717  -3.661   4.287  1.00  0.00    +0.135 C 
ATOM     59  C   UNK A   1       8.907  -4.640   4.062  1.00  0.00    -0.013 C 
ATOM     60  C   UNK A   1       9.299  -4.941   2.606  1.00  0.00    +0.029 C 
ATOM     61  C   UNK A   1      10.754  -4.631   2.284  1.00  0.00    +0.217 C 
ATOM     62  O   UNK A   1      11.560  -5.443   1.819  1.00  0.00    -0.275 OA
ATOM     63  N   UNK A   1      11.139  -3.348   2.537  1.00  0.00    -0.370 N 
ATOM     64  C   UNK A   1       7.982  -2.222   3.700  1.00  0.00    +0.266 C 
ATOM     65  O   UNK A   1       8.947  -2.028   2.945  1.00  0.00    -0.270 OA
ATOM     66  N   UNK A   1       7.234  -1.234   4.246  1.00  0.00    -0.236 N 
ATOM     67  C   UNK A   1       6.820  -0.168   3.247  1.00  0.00    +0.131 C 
ATOM     68  C   UNK A   1       5.872  -0.800   2.203  1.00  0.00    -0.033 C 
ATOM     69  C   UNK A   1       6.103   1.123   3.850  1.00  0.00    +0.266 C 
ATOM     70  O   UNK A   1       5.819   1.248   5.041  1.00  0.00    -0.270 OA
ATOM     71  N   UNK A   1       5.992   2.101   2.914  1.00  0.00    -0.235 N 
ATOM     72  C   UNK A   1       4.691   2.874   2.760  1.00  0.00    +0.143 C 
ATOM     73  C   UNK A   1       3.407   2.029   2.340  1.00  0.00    +0.027 C 
ATOM     74  S   UNK A   1       2.269   3.046   1.196  1.00  0.00    -0.140 S 
ATOM     75  C   UNK A   1       4.468   3.917   3.905  1.00  0.00    +0.267 C 
ATOM     76  O   UNK A   1       3.552   3.869   4.725  1.00  0.00    -0.270 OA
ATOM     77  N   UNK A   1       5.370   4.919   3.841  1.00  0.00    -0.238 N 
ATOM     78  C   UNK A   1       5.949   5.237   5.147  1.00  0.00    +0.140 C 
ATOM     79  C   UNK A   1       7.455   5.239   4.974  1.00  0.00    +0.325 C 
ATOM     80  O   UNK A   1       8.206   6.088   5.466  1.00  0.00    -0.250 OA
ATOM     81  O   UNK A   1       7.924   4.194   4.252  1.00  0.00    -0.480 OA
ATOM     82  C   UNK A   1      -0.844   4.387  -1.969  1.00  0.00    -0.059 C 
ATOM     83  C   UNK A   1      -2.173   4.352  -1.551  1.00  0.00    -0.058 C 
ATOM     84  C   UNK A   1      -2.561   3.550  -0.477  1.00  0.00    -0.038 C 
ATOM     85  C   UNK A   1      -4.059   3.426  -0.149  1.00  0.00    +0.019 C 
ATOM     86  C   UNK A   1      -1.551   2.765   0.159  1.00  0.00    -0.053 C 
ATOM     87  C   UNK A   1      -0.173   2.783  -0.240  1.00  0.00    -0.022 C 
ATOM     88  C   UNK A   1       0.875   1.869   0.516  1.00  0.00    +0.076 C 
ATOM     89  C   UNK A   1       0.159   3.611  -1.345  1.00  0.00    -0.046 C 
ATOM     90  C   UNK A   1       1.546   3.761  -1.913  1.00  0.00    -0.039 C 
ATOM     91  H   UNK A   1     -10.117   6.591   1.879  1.00  0.00    +0.060 HD
ATOM     92  H   UNK A   1     -12.209   7.446   0.711  1.00  0.00    +0.025 HD
ATOM     93  H   UNK A   1     -11.205   6.457  -0.340  1.00  0.00    +0.025 HD
ATOM     94  H   UNK A   1     -11.184   8.220  -0.512  1.00  0.00    +0.025 HD
ATOM     95  H   UNK A   1      -6.977   6.715  -1.240  1.00  0.00    +0.067 HD
ATOM     96  H   UNK A   1      -7.085   3.944   0.064  1.00  0.00    +0.041 HD
ATOM     97  H   UNK A   1      -6.460   4.261  -1.566  1.00  0.00    +0.041 HD
ATOM     98  H   UNK A   1      -8.825   3.954  -3.560  1.00  0.00    +0.062 HD
ATOM     99  H   UNK A   1      -8.350   2.862  -2.253  1.00  0.00    +0.062 HD
ATOM    100  H   UNK A   1      -8.039   0.945  -3.106  1.00  0.00    +0.062 HD
ATOM    101  H   UNK A   1      -8.221   1.757  -4.681  1.00  0.00    +0.062 HD
ATOM    102  H   UNK A   1      -6.138  -0.763  -3.614  1.00  0.00    +0.066 HD
ATOM    103  H   UNK A   1      -7.395  -2.957  -4.222  1.00  0.00    +0.036 HD
ATOM    104  H   UNK A   1      -6.309  -3.135  -5.589  1.00  0.00    +0.036 HD
ATOM    105  H   UNK A   1      -4.910  -2.141  -1.995  1.00  0.00    +0.084 HD
ATOM    106  H   UNK A   1      -2.753  -3.466  -2.093  1.00  0.00    +0.167 HD
ATOM    107  H   UNK A   1      -2.992  -5.539  -3.508  1.00  0.00    +0.104 HD
ATOM    108  H   UNK A   1      -2.266   0.183  -5.113  1.00  0.00    +0.068 HD
ATOM    109  H   UNK A   1      -3.842   1.238  -3.525  1.00  0.00    +0.059 HD
ATOM    110  H   UNK A   1      -2.171   1.297  -2.957  1.00  0.00    +0.059 HD
ATOM    111  H   UNK A   1      -2.854  -0.800  -1.945  1.00  0.00    +0.210 HD
ATOM    112  H   UNK A   1       0.920  -1.613  -2.471  1.00  0.00    +0.067 HD
ATOM    113  H   UNK A   1      -0.819  -0.017  -0.811  1.00  0.00    +0.041 HD
ATOM    114  H   UNK A   1      -0.029  -1.112   0.321  1.00  0.00    +0.041 HD
ATOM    115  H   UNK A   1       1.280  -5.513  -0.262  1.00  0.00    +0.066 HD
ATOM    116  H   UNK A   1       2.534  -4.989  -2.267  1.00  0.00    +0.036 HD
ATOM    117  H   UNK A   1       3.711  -4.052  -1.364  1.00  0.00    +0.036 HD
ATOM    118  H   UNK A   1       3.366  -7.302   0.568  1.00  0.00    +0.084 HD
ATOM    119  H   UNK A   1       5.735  -6.789   1.031  1.00  0.00    +0.167 HD
ATOM    120  H   UNK A   1       7.109  -6.399  -1.083  1.00  0.00    +0.104 HD
ATOM    121  H   UNK A   1       4.001  -4.057   3.583  1.00  0.00    +0.065 HD
ATOM    122  H   UNK A   1       4.223  -7.105   3.138  1.00  0.00    +0.026 HD
ATOM    123  H   UNK A   1       2.835  -6.284   3.845  1.00  0.00    +0.026 HD
ATOM    124  H   UNK A   1       4.366  -6.296   4.699  1.00  0.00    +0.026 HD
ATOM    125  H   UNK A   1       7.813  -3.461   5.370  1.00  0.00    +0.066 HD
ATOM    126  H   UNK A   1       9.776  -4.239   4.603  1.00  0.00    +0.030 HD
ATOM    127  H   UNK A   1       8.677  -5.594   4.555  1.00  0.00    +0.030 HD
ATOM    128  H   UNK A   1       8.688  -4.391   1.884  1.00  0.00    +0.037 HD
ATOM    129  H   UNK A   1       9.160  -6.010   2.406  1.00  0.00    +0.037 HD
ATOM    130  H   UNK A   1      11.950  -2.977   2.088  1.00  0.00    +0.159 HD
ATOM    131  H   UNK A   1      10.345  -2.684   2.671  1.00  0.00    +0.159 HD
ATOM    132  H   UNK A   1       7.715   0.212   2.728  1.00  0.00    +0.065 HD
ATOM    133  H   UNK A   1       6.308  -1.689   1.732  1.00  0.00    +0.026 HD
ATOM    134  H   UNK A   1       4.925  -1.102   2.670  1.00  0.00    +0.026 HD
ATOM    135  H   UNK A   1       5.646  -0.098   1.393  1.00  0.00    +0.026 HD
ATOM    136  H   UNK A   1       4.872   3.503   1.867  1.00  0.00    +0.067 HD
ATOM    137  H   UNK A   1       2.824   1.735   3.216  1.00  0.00    +0.041 HD
ATOM    138  H   UNK A   1       3.696   1.141   1.774  1.00  0.00    +0.041 HD
ATOM    139  H   UNK A   1       5.642   6.232   5.488  1.00  0.00    +0.064 HD
ATOM    140  H   UNK A   1       5.732   4.524   5.951  1.00  0.00    +0.064 HD
ATOM    141  H   UNK A   1       7.120   3.654   3.944  1.00  0.00    +0.296 HD
ATOM    142  H   UNK A   1      -0.595   5.004  -2.825  1.00  0.00    +0.063 HD
ATOM    143  H   UNK A   1      -2.921   4.911  -2.109  1.00  0.00    +0.063 HD
ATOM    144  H   UNK A   1      -4.188   2.851   0.774  1.00  0.00    +0.043 HD
ATOM    145  H   UNK A   1      -4.552   2.892  -0.968  1.00  0.00    +0.043 HD
ATOM    146  H   UNK A   1      -1.850   2.071   0.945  1.00  0.00    +0.063 HD
ATOM    147  H   UNK A   1       0.407   1.419   1.398  1.00  0.00    +0.058 HD
ATOM    148  H   UNK A   1       2.088   4.547  -1.382  1.00  0.00    +0.028 HD
ATOM    149  H   UNK A   1       2.120   2.835  -1.903  1.00  0.00    +0.028 HD
ATOM    150  H   UNK A   1       1.498   4.054  -2.968  1.00  0.00    +0.028 HD
ENDROOT
TORSDOF 0