MODEL 1
REMARK VINA RESULT:      26.8      0.000      0.000
REMARK  Generated by RDKit with Gasteiger charges
REMARK  --------------------------------------------------
ROOT
ATOM      1  N   UNK A   1     -14.248  27.858  -7.093  1.00  0.00    -0.131 N 
ATOM      2  C   UNK A   1     -14.028  26.467  -6.641  1.00  0.00    +0.121 C 
ATOM      3  C   UNK A   1     -14.043  26.446  -5.118  1.00  0.00    -0.037 C 
ATOM      4  C   UNK A   1     -15.069  25.532  -7.305  1.00  0.00    +0.262 C 
ATOM      5  O   UNK A   1     -15.990  25.966  -8.006  1.00  0.00    -0.271 OA
ATOM      6  N   UNK A   1     -14.677  24.261  -7.158  1.00  0.00    -0.236 N 
ATOM      7  C   UNK A   1     -15.731  23.262  -6.777  1.00  0.00    +0.143 C 
ATOM      8  C   UNK A   1     -15.184  21.795  -6.922  1.00  0.00    +0.025 C 
ATOM      9  S   UNK A   1     -13.507  21.371  -6.237  1.00  0.00    -0.154 S 
ATOM     10  C   UNK A   1     -16.363  23.402  -5.356  1.00  0.00    +0.267 C 
ATOM     11  O   UNK A   1     -15.791  24.019  -4.455  1.00  0.00    -0.270 OA
ATOM     12  N   UNK A   1     -17.573  22.789  -5.305  1.00  0.00    -0.236 N 
ATOM     13  C   UNK A   1     -18.153  22.555  -3.930  1.00  0.00    +0.138 C 
ATOM     14  C   UNK A   1     -19.116  23.708  -3.523  1.00  0.00    +0.006 C 
ATOM     15  C   UNK A   1     -18.545  25.070  -3.222  1.00  0.00    -0.020 C 
ATOM     16  C   UNK A   1     -18.236  26.034  -4.163  1.00  0.00    +0.005 C 
ATOM     17  N   UNK A   1     -17.646  27.079  -3.524  1.00  0.00    -0.361 N 
ATOM     18  C   UNK A   1     -17.711  26.911  -2.162  1.00  0.00    +0.046 C 
ATOM     19  C   UNK A   1     -17.291  27.744  -1.116  1.00  0.00    -0.038 C 
ATOM     20  C   UNK A   1     -17.395  27.249   0.189  1.00  0.00    -0.060 C 
ATOM     21  C   UNK A   1     -17.884  25.965   0.433  1.00  0.00    -0.062 C 
ATOM     22  C   UNK A   1     -18.297  25.147  -0.625  1.00  0.00    -0.053 C 
ATOM     23  C   UNK A   1     -18.227  25.629  -1.948  1.00  0.00    +0.003 C 
ATOM     24  C   UNK A   1     -19.103  21.279  -3.957  1.00  0.00    +0.267 C 
ATOM     25  O   UNK A   1     -20.214  21.337  -4.506  1.00  0.00    -0.270 OA
ATOM     26  N   UNK A   1     -18.597  20.166  -3.383  1.00  0.00    -0.236 N 
ATOM     27  C   UNK A   1     -19.018  19.805  -1.951  1.00  0.00    +0.138 C 
ATOM     28  C   UNK A   1     -20.483  20.170  -1.585  1.00  0.00    +0.004 C 
ATOM     29  C   UNK A   1     -20.660  20.787  -0.201  1.00  0.00    -0.045 C 
ATOM     30  C   UNK A   1     -20.494  20.002   0.946  1.00  0.00    -0.059 C 
ATOM     31  C   UNK A   1     -20.614  20.562   2.218  1.00  0.00    -0.062 C 
ATOM     32  C   UNK A   1     -20.923  21.915   2.365  1.00  0.00    -0.062 C 
ATOM     33  C   UNK A   1     -21.096  22.709   1.231  1.00  0.00    -0.062 C 
ATOM     34  C   UNK A   1     -20.967  22.146  -0.045  1.00  0.00    -0.059 C 
ATOM     35  C   UNK A   1     -18.877  18.215  -1.739  1.00  0.00    +0.267 C 
ATOM     36  O   UNK A   1     -19.358  17.439  -2.576  1.00  0.00    -0.270 OA
ATOM     37  N   UNK A   1     -18.287  17.871  -0.567  1.00  0.00    -0.236 N 
ATOM     38  C   UNK A   1     -17.739  16.439  -0.432  1.00  0.00    +0.134 C 
ATOM     39  C   UNK A   1     -16.215  16.448  -0.714  1.00  0.00    -0.020 C 
ATOM     40  C   UNK A   1     -15.756  16.845  -2.129  1.00  0.00    -0.033 C 
ATOM     41  C   UNK A   1     -16.073  15.825  -3.227  1.00  0.00    +0.018 C 
ATOM     42  N   UNK A   1     -17.313  16.157  -3.940  1.00  0.00    -0.357 N 
ATOM     43  C   UNK A   1     -17.328  16.985  -5.011  1.00  0.00    +0.185 C 
ATOM     44  N   UNK A   1     -16.514  16.994  -6.021  1.00  0.00    -0.270 N 
ATOM     45  N   UNK A   1     -18.398  17.816  -5.048  1.00  0.00    -0.370 N 
ATOM     46  C   UNK A   1     -18.112  15.732   0.988  1.00  0.00    +0.266 C 
ATOM     47  O   UNK A   1     -19.308  15.653   1.312  1.00  0.00    -0.270 OA
ATOM     48  N   UNK A   1     -17.075  15.341   1.789  1.00  0.00    -0.235 N 
ATOM     49  C   UNK A   1     -16.688  13.841   1.835  1.00  0.00    +0.143 C 
ATOM     50  C   UNK A   1     -15.075  13.647   1.933  1.00  0.00    +0.060 C 
ATOM     51  C   UNK A   1     -14.204  13.108   0.677  1.00  0.00    +0.244 C 
ATOM     52  O   UNK A   1     -14.743  12.538  -0.277  1.00  0.00    -0.273 OA
ATOM     53  C   UNK A   1     -17.547  12.915   2.905  1.00  0.00    +0.267 C 
ATOM     54  O   UNK A   1     -18.431  12.179   2.427  1.00  0.00    -0.270 OA
ATOM     55  N   UNK A   1     -12.847  13.280   0.837  1.00  0.00    -0.237 N 
ATOM     56  C   UNK A   1     -11.985  12.962  -0.398  1.00  0.00    +0.143 C 
ATOM     57  C   UNK A   1     -12.121  14.065  -1.494  1.00  0.00    +0.026 C 
ATOM     58  S   UNK A   1     -11.258  15.682  -1.211  1.00  0.00    -0.142 S 
ATOM     59  C   UNK A   1     -10.443  12.607  -0.158  1.00  0.00    +0.267 C 
ATOM     60  O   UNK A   1      -9.915  12.590   0.957  1.00  0.00    -0.270 OA
ATOM     61  N   UNK A   1     -17.208  12.941   4.247  1.00  0.00    -0.236 N 
ATOM     62  C   UNK A   1     -17.826  11.797   5.092  1.00  0.00    +0.134 C 
ATOM     63  C   UNK A   1     -17.030  10.487   4.813  1.00  0.00    -0.021 C 
ATOM     64  C   UNK A   1     -17.791   9.427   3.998  1.00  0.00    -0.050 C 
ATOM     65  C   UNK A   1     -19.098   8.891   4.602  1.00  0.00    -0.041 C 
ATOM     66  C   UNK A   1     -18.942   7.658   5.495  1.00  0.00    -0.008 C 
ATOM     67  N   UNK A   1     -18.345   7.878   6.809  1.00  0.00    -0.330 N 
ATOM     68  C   UNK A   1     -17.859  11.975   6.693  1.00  0.00    +0.266 C 
ATOM     69  O   UNK A   1     -17.084  12.714   7.304  1.00  0.00    -0.270 OA
ATOM     70  N   UNK A   1      -9.816  12.225  -1.307  1.00  0.00    -0.233 N 
ATOM     71  C   UNK A   1      -8.300  12.269  -1.330  1.00  0.00    +0.160 C 
ATOM     72  C   UNK A   1      -7.712  10.960  -0.719  1.00  0.00    +0.083 C 
ATOM     73  C   UNK A   1      -6.217  10.767  -0.960  1.00  0.00    -0.036 C 
ATOM     74  O   UNK A   1      -7.857  10.938   0.720  1.00  0.00    -0.391 OA
ATOM     75  C   UNK A   1      -7.770  12.398  -2.822  1.00  0.00    +0.269 C 
ATOM     76  O   UNK A   1      -8.158  11.649  -3.725  1.00  0.00    -0.270 OA
ATOM     77  N   UNK A   1     -18.772  11.140   7.295  1.00  0.00    -0.236 N 
ATOM     78  C   UNK A   1     -19.017  11.395   8.752  1.00  0.00    +0.131 C 
ATOM     79  C   UNK A   1     -19.831  12.691   8.916  1.00  0.00    -0.033 C 
ATOM     80  C   UNK A   1     -19.804  10.237   9.462  1.00  0.00    +0.266 C 
ATOM     81  O   UNK A   1     -20.505   9.407   8.884  1.00  0.00    -0.270 OA
ATOM     82  N   UNK A   1      -6.748  13.284  -2.925  1.00  0.00    -0.236 N 
ATOM     83  C   UNK A   1      -6.689  14.029  -4.214  1.00  0.00    +0.135 C 
ATOM     84  C   UNK A   1      -7.049  15.530  -3.999  1.00  0.00    -0.014 C 
ATOM     85  C   UNK A   1      -8.290  15.917  -3.167  1.00  0.00    -0.022 C 
ATOM     86  S   UNK A   1      -9.883  15.750  -3.954  1.00  0.00    -0.241 S 
ATOM     87  C   UNK A   1      -9.859  16.690  -5.453  1.00  0.00    -0.036 C 
ATOM     88  C   UNK A   1      -5.210  13.950  -4.803  1.00  0.00    +0.266 C 
ATOM     89  O   UNK A   1      -4.209  13.604  -4.174  1.00  0.00    -0.270 OA
ATOM     90  N   UNK A   1     -19.730  10.312  10.809  1.00  0.00    -0.233 N 
ATOM     91  C   UNK A   1     -20.179   9.105  11.552  1.00  0.00    +0.159 C 
ATOM     92  C   UNK A   1     -19.452   9.109  12.915  1.00  0.00    +0.024 C 
ATOM     93  S   UNK A   1     -19.682   7.586  13.926  1.00  0.00    -0.176 S 
ATOM     94  C   UNK A   1     -21.701   9.107  11.739  1.00  0.00    +0.329 C 
ATOM     95  O   UNK A   1     -22.282   8.943  12.812  1.00  0.00    -0.250 OA
ATOM     96  O   UNK A   1     -22.398   9.197  10.584  1.00  0.00    -0.480 OA
ATOM     97  N   UNK A   1      -5.180  14.275  -6.119  1.00  0.00    -0.238 N 
ATOM     98  C   UNK A   1      -3.839  14.608  -6.631  1.00  0.00    +0.140 C 
ATOM     99  C   UNK A   1      -3.203  13.415  -7.319  1.00  0.00    +0.325 C 
ATOM    100  O   UNK A   1      -2.186  13.471  -8.011  1.00  0.00    -0.250 OA
ATOM    101  O   UNK A   1      -3.882  12.259  -7.128  1.00  0.00    -0.480 OA
ATOM    102  C   UNK A   1     -11.076  20.214  -2.465  1.00  0.00    -0.059 C 
ATOM    103  C   UNK A   1     -12.085  20.632  -3.333  1.00  0.00    -0.058 C 
ATOM    104  C   UNK A   1     -12.806  19.705  -4.079  1.00  0.00    -0.038 C 
ATOM    105  C   UNK A   1     -14.003  20.171  -4.914  1.00  0.00    +0.019 C 
ATOM    106  C   UNK A   1     -12.474  18.338  -3.924  1.00  0.00    -0.053 C 
ATOM    107  C   UNK A   1     -11.444  17.869  -3.039  1.00  0.00    -0.023 C 
ATOM    108  C   UNK A   1     -11.256  16.338  -2.915  1.00  0.00    +0.058 C 
ATOM    109  C   UNK A   1     -10.745  18.851  -2.298  1.00  0.00    -0.046 C 
ATOM    110  C   UNK A   1      -9.765  18.555  -1.197  1.00  0.00    -0.039 C 
ATOM    111  H   UNK A   1     -13.031  26.182  -7.001  1.00  0.00    +0.060 HD
ATOM    112  H   UNK A   1     -15.045  26.637  -4.728  1.00  0.00    +0.025 HD
ATOM    113  H   UNK A   1     -13.363  27.202  -4.706  1.00  0.00    +0.025 HD
ATOM    114  H   UNK A   1     -13.701  25.478  -4.742  1.00  0.00    +0.025 HD
ATOM    115  H   UNK A   1     -16.559  23.351  -7.495  1.00  0.00    +0.067 HD
ATOM    116  H   UNK A   1     -15.081  21.598  -7.996  1.00  0.00    +0.041 HD
ATOM    117  H   UNK A   1     -15.909  21.062  -6.551  1.00  0.00    +0.041 HD
ATOM    118  H   UNK A   1     -17.391  22.414  -3.153  1.00  0.00    +0.066 HD
ATOM    119  H   UNK A   1     -19.874  23.847  -4.311  1.00  0.00    +0.034 HD
ATOM    120  H   UNK A   1     -19.685  23.392  -2.640  1.00  0.00    +0.034 HD
ATOM    121  H   UNK A   1     -18.253  25.957  -5.243  1.00  0.00    +0.082 HD
ATOM    122  H   UNK A   1     -17.156  27.815  -4.005  1.00  0.00    +0.166 HD
ATOM    123  H   UNK A   1     -16.863  28.717  -1.320  1.00  0.00    +0.064 HD
ATOM    124  H   UNK A   1     -17.045  27.852   1.022  1.00  0.00    +0.062 HD
ATOM    125  H   UNK A   1     -17.908  25.556   1.438  1.00  0.00    +0.062 HD
ATOM    126  H   UNK A   1     -18.614  24.120  -0.449  1.00  0.00    +0.063 HD
ATOM    127  H   UNK A   1     -18.315  20.298  -1.269  1.00  0.00    +0.066 HD
ATOM    128  H   UNK A   1     -20.933  20.873  -2.293  1.00  0.00    +0.034 HD
ATOM    129  H   UNK A   1     -21.133  19.288  -1.626  1.00  0.00    +0.034 HD
ATOM    130  H   UNK A   1     -20.211  18.950   0.848  1.00  0.00    +0.063 HD
ATOM    131  H   UNK A   1     -20.418  19.925   3.076  1.00  0.00    +0.062 HD
ATOM    132  H   UNK A   1     -20.978  22.345   3.355  1.00  0.00    +0.062 HD
ATOM    133  H   UNK A   1     -21.293  23.771   1.328  1.00  0.00    +0.062 HD
ATOM    134  H   UNK A   1     -21.062  22.766  -0.931  1.00  0.00    +0.063 HD
ATOM    135  H   UNK A   1     -18.215  15.759  -1.152  1.00  0.00    +0.066 HD
ATOM    136  H   UNK A   1     -15.801  15.453  -0.519  1.00  0.00    +0.029 HD
ATOM    137  H   UNK A   1     -15.719  17.130  -0.004  1.00  0.00    +0.029 HD
ATOM    138  H   UNK A   1     -14.662  16.927  -2.079  1.00  0.00    +0.029 HD
ATOM    139  H   UNK A   1     -16.108  17.848  -2.395  1.00  0.00    +0.029 HD
ATOM    140  H   UNK A   1     -15.240  15.805  -3.942  1.00  0.00    +0.049 HD
ATOM    141  H   UNK A   1     -16.160  14.815  -2.817  1.00  0.00    +0.049 HD
ATOM    142  H   UNK A   1     -17.997  16.434  -3.214  1.00  0.00    +0.163 HD
ATOM    143  H   UNK A   1     -16.889  17.786  -6.552  1.00  0.00    +0.191 HD
ATOM    144  H   UNK A   1     -19.027  17.605  -4.256  1.00  0.00    +0.159 HD
ATOM    145  H   UNK A   1     -18.131  18.747  -4.659  1.00  0.00    +0.159 HD
ATOM    146  H   UNK A   1     -16.955  13.405   0.860  1.00  0.00    +0.066 HD
ATOM    147  H   UNK A   1     -14.870  12.924   2.733  1.00  0.00    +0.040 HD
ATOM    148  H   UNK A   1     -14.632  14.609   2.234  1.00  0.00    +0.040 HD
ATOM    149  H   UNK A   1     -12.384  12.032  -0.834  1.00  0.00    +0.067 HD
ATOM    150  H   UNK A   1     -13.178  14.298  -1.666  1.00  0.00    +0.041 HD
ATOM    151  H   UNK A   1     -11.730  13.660  -2.436  1.00  0.00    +0.041 HD
ATOM    152  H   UNK A   1     -18.881  11.694   4.807  1.00  0.00    +0.066 HD
ATOM    153  H   UNK A   1     -16.112  10.719   4.259  1.00  0.00    +0.029 HD
ATOM    154  H   UNK A   1     -16.683  10.026   5.746  1.00  0.00    +0.029 HD
ATOM    155  H   UNK A   1     -17.116   8.587   3.786  1.00  0.00    +0.027 HD
ATOM    156  H   UNK A   1     -18.029   9.859   3.021  1.00  0.00    +0.027 HD
ATOM    157  H   UNK A   1     -19.658   9.671   5.126  1.00  0.00    +0.028 HD
ATOM    158  H   UNK A   1     -19.739   8.589   3.763  1.00  0.00    +0.028 HD
ATOM    159  H   UNK A   1     -19.938   7.229   5.660  1.00  0.00    +0.043 HD
ATOM    160  H   UNK A   1     -18.350   6.896   4.972  1.00  0.00    +0.043 HD
ATOM    161  H   UNK A   1     -18.906   8.639   7.258  1.00  0.00    +0.118 HD
ATOM    162  H   UNK A   1     -17.498   8.443   6.657  1.00  0.00    +0.118 HD
ATOM    163  H   UNK A   1      -7.941  13.136  -0.754  1.00  0.00    +0.069 HD
ATOM    164  H   UNK A   1      -8.250  10.083  -1.097  1.00  0.00    +0.063 HD
ATOM    165  H   UNK A   1      -5.973  10.626  -2.016  1.00  0.00    +0.026 HD
ATOM    166  H   UNK A   1      -5.649  11.624  -0.577  1.00  0.00    +0.026 HD
ATOM    167  H   UNK A   1      -5.853   9.890  -0.414  1.00  0.00    +0.026 HD
ATOM    168  H   UNK A   1      -8.669  11.504   0.842  1.00  0.00    +0.211 HD
ATOM    169  H   UNK A   1     -18.060  11.483   9.288  1.00  0.00    +0.065 HD
ATOM    170  H   UNK A   1     -20.761  12.637   8.339  1.00  0.00    +0.026 HD
ATOM    171  H   UNK A   1     -20.106  12.879   9.954  1.00  0.00    +0.026 HD
ATOM    172  H   UNK A   1     -19.271  13.562   8.561  1.00  0.00    +0.026 HD
ATOM    173  H   UNK A   1      -7.365  13.614  -4.976  1.00  0.00    +0.066 HD
ATOM    174  H   UNK A   1      -7.113  16.016  -4.979  1.00  0.00    +0.030 HD
ATOM    175  H   UNK A   1      -6.189  16.002  -3.503  1.00  0.00    +0.030 HD
ATOM    176  H   UNK A   1      -8.197  16.985  -2.951  1.00  0.00    +0.036 HD
ATOM    177  H   UNK A   1      -8.327  15.378  -2.217  1.00  0.00    +0.036 HD
ATOM    178  H   UNK A   1     -10.088  14.441  -4.233  1.00  0.00    +0.084 HD
ATOM    179  H   UNK A   1      -9.149  16.223  -6.134  1.00  0.00    +0.033 HD
ATOM    180  H   UNK A   1     -10.852  16.659  -5.900  1.00  0.00    +0.033 HD
ATOM    181  H   UNK A   1      -9.550  17.714  -5.238  1.00  0.00    +0.033 HD
ATOM    182  H   UNK A   1     -19.911   8.172  11.035  1.00  0.00    +0.068 HD
ATOM    183  H   UNK A   1     -19.793   9.948  13.532  1.00  0.00    +0.041 HD
ATOM    184  H   UNK A   1     -18.372   9.228  12.775  1.00  0.00    +0.041 HD
ATOM    185  H   UNK A   1     -21.020   7.621  13.838  1.00  0.00    +0.102 HD
ATOM    186  H   UNK A   1     -21.726   9.363   9.856  1.00  0.00    +0.296 HD
ATOM    187  H   UNK A   1      -3.927  15.399  -7.391  1.00  0.00    +0.064 HD
ATOM    188  H   UNK A   1      -3.133  14.975  -5.871  1.00  0.00    +0.064 HD
ATOM    189  H   UNK A   1      -4.625  12.545  -6.515  1.00  0.00    +0.296 HD
ATOM    190  H   UNK A   1     -10.585  20.964  -1.855  1.00  0.00    +0.063 HD
ATOM    191  H   UNK A   1     -12.359  21.684  -3.383  1.00  0.00    +0.063 HD
ATOM    192  H   UNK A   1     -14.734  20.645  -4.250  1.00  0.00    +0.043 HD
ATOM    193  H   UNK A   1     -14.480  19.311  -5.400  1.00  0.00    +0.043 HD
ATOM    194  H   UNK A   1     -13.084  17.600  -4.450  1.00  0.00    +0.063 HD
ATOM    195  H   UNK A   1     -12.131  15.878  -3.389  1.00  0.00    +0.057 HD
ATOM    196  H   UNK A   1      -9.263  17.596  -1.300  1.00  0.00    +0.028 HD
ATOM    197  H   UNK A   1     -10.279  18.580  -0.228  1.00  0.00    +0.028 HD
ATOM    198  H   UNK A   1      -8.970  19.312  -1.185  1.00  0.00    +0.028 HD
ENDROOT
TORSDOF 0
ENDMDL
MODEL 2
REMARK VINA RESULT:      29.6      1.413      1.489
REMARK  Generated by RDKit with Gasteiger charges
REMARK  --------------------------------------------------
ROOT
ATOM      1  N   UNK A   1     -16.452  28.433  -7.103  1.00  0.00    -0.131 N 
ATOM      2  C   UNK A   1     -15.986  27.106  -6.646  1.00  0.00    +0.121 C 
ATOM      3  C   UNK A   1     -16.000  27.088  -5.123  1.00  0.00    -0.037 C 
ATOM      4  C   UNK A   1     -16.840  25.997  -7.307  1.00  0.00    +0.262 C 
ATOM      5  O   UNK A   1     -17.823  26.255  -8.011  1.00  0.00    -0.271 OA
ATOM      6  N   UNK A   1     -16.226  24.817  -7.156  1.00  0.00    -0.236 N 
ATOM      7  C   UNK A   1     -17.084  23.646  -6.771  1.00  0.00    +0.143 C 
ATOM      8  C   UNK A   1     -16.282  22.302  -6.910  1.00  0.00    +0.025 C 
ATOM      9  S   UNK A   1     -14.557  22.188  -6.222  1.00  0.00    -0.154 S 
ATOM     10  C   UNK A   1     -17.734  23.675  -5.352  1.00  0.00    +0.267 C 
ATOM     11  O   UNK A   1     -17.284  24.388  -4.453  1.00  0.00    -0.270 OA
ATOM     12  N   UNK A   1     -18.814  22.855  -5.300  1.00  0.00    -0.236 N 
ATOM     13  C   UNK A   1     -19.344  22.525  -3.926  1.00  0.00    +0.138 C 
ATOM     14  C   UNK A   1     -20.500  23.487  -3.523  1.00  0.00    +0.006 C 
ATOM     15  C   UNK A   1     -20.184  24.931  -3.227  1.00  0.00    -0.020 C 
ATOM     16  C   UNK A   1     -20.051  25.931  -4.171  1.00  0.00    +0.005 C 
ATOM     17  N   UNK A   1     -19.661  27.068  -3.535  1.00  0.00    -0.361 N 
ATOM     18  C   UNK A   1     -19.696  26.895  -2.173  1.00  0.00    +0.046 C 
ATOM     19  C   UNK A   1     -19.435  27.794  -1.130  1.00  0.00    -0.038 C 
ATOM     20  C   UNK A   1     -19.451  27.293   0.177  1.00  0.00    -0.060 C 
ATOM     21  C   UNK A   1     -19.701  25.943   0.425  1.00  0.00    -0.062 C 
ATOM     22  C   UNK A   1     -19.958  25.061  -0.630  1.00  0.00    -0.053 C 
ATOM     23  C   UNK A   1     -19.974  25.542  -1.954  1.00  0.00    +0.003 C 
ATOM     24  C   UNK A   1     -20.049  21.099  -3.948  1.00  0.00    +0.267 C 
ATOM     25  O   UNK A   1     -21.151  20.954  -4.499  1.00  0.00    -0.270 OA
ATOM     26  N   UNK A   1     -19.353  20.096  -3.370  1.00  0.00    -0.236 N 
ATOM     27  C   UNK A   1     -19.705  19.671  -1.937  1.00  0.00    +0.138 C 
ATOM     28  C   UNK A   1     -21.212  19.768  -1.574  1.00  0.00    +0.004 C 
ATOM     29  C   UNK A   1     -21.500  20.347  -0.192  1.00  0.00    -0.045 C 
ATOM     30  C   UNK A   1     -21.197  19.609   0.958  1.00  0.00    -0.059 C 
ATOM     31  C   UNK A   1     -21.418  20.143   2.228  1.00  0.00    -0.062 C 
ATOM     32  C   UNK A   1     -21.965  21.419   2.369  1.00  0.00    -0.062 C 
ATOM     33  C   UNK A   1     -22.277  22.164   1.232  1.00  0.00    -0.062 C 
ATOM     34  C   UNK A   1     -22.046  21.630  -0.041  1.00  0.00    -0.059 C 
ATOM     35  C   UNK A   1     -19.280  18.133  -1.719  1.00  0.00    +0.267 C 
ATOM     36  O   UNK A   1     -19.612  17.280  -2.553  1.00  0.00    -0.270 OA
ATOM     37  N   UNK A   1     -18.640  17.905  -0.544  1.00  0.00    -0.236 N 
ATOM     38  C   UNK A   1     -17.843  16.596  -0.404  1.00  0.00    +0.134 C 
ATOM     39  C   UNK A   1     -16.345  16.877  -0.684  1.00  0.00    -0.020 C 
ATOM     40  C   UNK A   1     -15.963  17.346  -2.100  1.00  0.00    -0.033 C 
ATOM     41  C   UNK A   1     -16.089  16.282  -3.194  1.00  0.00    +0.018 C 
ATOM     42  N   UNK A   1     -17.367  16.383  -3.910  1.00  0.00    -0.357 N 
ATOM     43  C   UNK A   1     -17.529  17.191  -4.985  1.00  0.00    +0.185 C 
ATOM     44  N   UNK A   1     -16.728  17.343  -5.994  1.00  0.00    -0.270 N 
ATOM     45  N   UNK A   1     -18.731  17.815  -5.026  1.00  0.00    -0.370 N 
ATOM     46  C   UNK A   1     -18.085  15.838   1.018  1.00  0.00    +0.266 C 
ATOM     47  O   UNK A   1     -19.248  15.546   1.342  1.00  0.00    -0.270 OA
ATOM     48  N   UNK A   1     -16.996  15.643   1.822  1.00  0.00    -0.235 N 
ATOM     49  C   UNK A   1     -16.346  14.237   1.874  1.00  0.00    +0.143 C 
ATOM     50  C   UNK A   1     -14.724  14.337   1.975  1.00  0.00    +0.060 C 
ATOM     51  C   UNK A   1     -13.768  13.959   0.722  1.00  0.00    +0.244 C 
ATOM     52  O   UNK A   1     -14.194  13.298  -0.230  1.00  0.00    -0.273 OA
ATOM     53  C   UNK A   1     -17.026  13.175   2.947  1.00  0.00    +0.267 C 
ATOM     54  O   UNK A   1     -17.763  12.290   2.471  1.00  0.00    -0.270 OA
ATOM     55  N   UNK A   1     -12.465  14.373   0.883  1.00  0.00    -0.237 N 
ATOM     56  C   UNK A   1     -11.557  14.210  -0.350  1.00  0.00    +0.143 C 
ATOM     57  C   UNK A   1     -11.888  15.267  -1.451  1.00  0.00    +0.026 C 
ATOM     58  S   UNK A   1     -11.330  17.014  -1.172  1.00  0.00    -0.142 S 
ATOM     59  C   UNK A   1      -9.977  14.140  -0.107  1.00  0.00    +0.267 C 
ATOM     60  O   UNK A   1      -9.456  14.222   1.009  1.00  0.00    -0.270 OA
ATOM     61  N   UNK A   1     -16.701  13.266   4.289  1.00  0.00    -0.236 N 
ATOM     62  C   UNK A   1     -17.103  12.033   5.138  1.00  0.00    +0.134 C 
ATOM     63  C   UNK A   1     -16.084  10.886   4.865  1.00  0.00    -0.021 C 
ATOM     64  C   UNK A   1     -16.641   9.704   4.052  1.00  0.00    -0.050 C 
ATOM     65  C   UNK A   1     -17.831   8.943   4.657  1.00  0.00    -0.041 C 
ATOM     66  C   UNK A   1     -17.458   7.762   5.555  1.00  0.00    -0.008 C 
ATOM     67  N   UNK A   1     -16.912   8.091   6.868  1.00  0.00    -0.330 N 
ATOM     68  C   UNK A   1     -17.171  12.207   6.738  1.00  0.00    +0.266 C 
ATOM     69  O   UNK A   1     -16.543  13.076   7.347  1.00  0.00    -0.270 OA
ATOM     70  N   UNK A   1      -9.290  13.872  -1.253  1.00  0.00    -0.233 N 
ATOM     71  C   UNK A   1      -7.806  14.188  -1.275  1.00  0.00    +0.160 C 
ATOM     72  C   UNK A   1      -6.994  13.009  -0.659  1.00  0.00    +0.083 C 
ATOM     73  C   UNK A   1      -5.487  13.088  -0.897  1.00  0.00    -0.036 C 
ATOM     74  O   UNK A   1      -7.135  12.967   0.780  1.00  0.00    -0.391 OA
ATOM     75  C   UNK A   1      -7.305  14.406  -2.767  1.00  0.00    +0.269 C 
ATOM     76  O   UNK A   1      -7.551  13.597  -3.668  1.00  0.00    -0.270 OA
ATOM     77  N   UNK A   1     -17.920  11.224   7.342  1.00  0.00    -0.236 N 
ATOM     78  C   UNK A   1     -18.210  11.436   8.798  1.00  0.00    +0.131 C 
ATOM     79  C   UNK A   1     -19.244  12.564   8.956  1.00  0.00    -0.033 C 
ATOM     80  C   UNK A   1     -18.777  10.157   9.510  1.00  0.00    +0.266 C 
ATOM     81  O   UNK A   1     -19.316   9.212   8.935  1.00  0.00    -0.270 OA
ATOM     82  N   UNK A   1      -6.460  15.461  -2.872  1.00  0.00    -0.236 N 
ATOM     83  C   UNK A   1      -6.533  16.200  -4.164  1.00  0.00    +0.135 C 
ATOM     84  C   UNK A   1      -7.158  17.612  -3.955  1.00  0.00    -0.014 C 
ATOM     85  C   UNK A   1      -8.450  17.773  -3.126  1.00  0.00    -0.022 C 
ATOM     86  S   UNK A   1      -9.985  17.319  -3.914  1.00  0.00    -0.241 S 
ATOM     87  C   UNK A   1     -10.128  18.243  -5.417  1.00  0.00    -0.036 C 
ATOM     88  C   UNK A   1      -5.063  16.387  -4.751  1.00  0.00    +0.266 C 
ATOM     89  O   UNK A   1      -4.017  16.228  -4.119  1.00  0.00    -0.270 OA
ATOM     90  N   UNK A   1     -18.719  10.249  10.858  1.00  0.00    -0.233 N 
ATOM     91  C   UNK A   1     -18.945   8.983  11.604  1.00  0.00    +0.159 C 
ATOM     92  C   UNK A   1     -18.234   9.123  12.968  1.00  0.00    +0.024 C 
ATOM     93  S   UNK A   1     -18.188   7.587  13.985  1.00  0.00    -0.176 S 
ATOM     94  C   UNK A   1     -20.443   8.713  11.790  1.00  0.00    +0.329 C 
ATOM     95  O   UNK A   1     -20.988   8.450  12.863  1.00  0.00    -0.250 OA
ATOM     96  O   UNK A   1     -21.143   8.671  10.634  1.00  0.00    -0.480 OA
ATOM     97  N   UNK A   1      -5.090  16.707  -6.068  1.00  0.00    -0.238 N 
ATOM     98  C   UNK A   1      -3.830  17.274  -6.580  1.00  0.00    +0.140 C 
ATOM     99  C   UNK A   1      -2.987  16.213  -7.263  1.00  0.00    +0.325 C 
ATOM    100  O   UNK A   1      -1.996  16.448  -7.954  1.00  0.00    -0.250 OA
ATOM    101  O   UNK A   1      -3.448  14.954  -7.068  1.00  0.00    -0.480 OA
ATOM    102  C   UNK A   1     -11.964  21.501  -2.443  1.00  0.00    -0.059 C 
ATOM    103  C   UNK A   1     -13.031  21.728  -3.313  1.00  0.00    -0.058 C 
ATOM    104  C   UNK A   1     -13.572  20.683  -4.057  1.00  0.00    -0.038 C 
ATOM    105  C   UNK A   1     -14.831  20.923  -4.896  1.00  0.00    +0.019 C 
ATOM    106  C   UNK A   1     -13.000  19.398  -3.897  1.00  0.00    -0.053 C 
ATOM    107  C   UNK A   1     -11.904  19.126  -3.009  1.00  0.00    -0.023 C 
ATOM    108  C   UNK A   1     -11.443  17.654  -2.879  1.00  0.00    +0.058 C 
ATOM    109  C   UNK A   1     -11.394  20.220  -2.271  1.00  0.00    -0.046 C 
ATOM    110  C   UNK A   1     -10.378  20.109  -1.168  1.00  0.00    -0.039 C 
ATOM    111  H   UNK A   1     -14.954  27.004  -7.004  1.00  0.00    +0.060 HD
ATOM    112  H   UNK A   1     -17.020  27.097  -4.735  1.00  0.00    +0.025 HD
ATOM    113  H   UNK A   1     -15.467  27.955  -4.713  1.00  0.00    +0.025 HD
ATOM    114  H   UNK A   1     -15.490  26.198  -4.743  1.00  0.00    +0.025 HD
ATOM    115  H   UNK A   1     -17.913  23.583  -7.491  1.00  0.00    +0.067 HD
ATOM    116  H   UNK A   1     -16.144  22.122  -7.984  1.00  0.00    +0.041 HD
ATOM    117  H   UNK A   1     -16.863  21.451  -6.538  1.00  0.00    +0.041 HD
ATOM    118  H   UNK A   1     -18.571  22.526  -3.147  1.00  0.00    +0.066 HD
ATOM    119  H   UNK A   1     -21.269  23.485  -4.313  1.00  0.00    +0.034 HD
ATOM    120  H   UNK A   1     -21.004  23.077  -2.640  1.00  0.00    +0.034 HD
ATOM    121  H   UNK A   1     -20.052  25.849  -5.251  1.00  0.00    +0.082 HD
ATOM    122  H   UNK A   1     -19.310  27.879  -4.018  1.00  0.00    +0.166 HD
ATOM    123  H   UNK A   1     -19.189  28.827  -1.336  1.00  0.00    +0.064 HD
ATOM    124  H   UNK A   1     -19.217  27.952   1.008  1.00  0.00    +0.062 HD
ATOM    125  H   UNK A   1     -19.654  25.540   1.432  1.00  0.00    +0.062 HD
ATOM    126  H   UNK A   1     -20.086  23.993  -0.450  1.00  0.00    +0.063 HD
ATOM    127  H   UNK A   1     -19.103  20.285  -1.256  1.00  0.00    +0.066 HD
ATOM    128  H   UNK A   1     -21.780  20.376  -2.285  1.00  0.00    +0.034 HD
ATOM    129  H   UNK A   1     -21.692  18.783  -1.613  1.00  0.00    +0.034 HD
ATOM    130  H   UNK A   1     -20.729  18.625   0.864  1.00  0.00    +0.063 HD
ATOM    131  H   UNK A   1     -21.113  19.555   3.088  1.00  0.00    +0.062 HD
ATOM    132  H   UNK A   1     -22.099  21.835   3.358  1.00  0.00    +0.062 HD
ATOM    133  H   UNK A   1     -22.662  23.174   1.325  1.00  0.00    +0.062 HD
ATOM    134  H   UNK A   1     -22.250  22.219  -0.931  1.00  0.00    +0.063 HD
ATOM    135  H   UNK A   1     -18.188  15.839  -1.122  1.00  0.00    +0.066 HD
ATOM    136  H   UNK A   1     -15.760  15.974  -0.485  1.00  0.00    +0.029 HD
ATOM    137  H   UNK A   1     -15.981  17.640   0.024  1.00  0.00    +0.029 HD
ATOM    138  H   UNK A   1     -14.902  17.623  -2.049  1.00  0.00    +0.029 HD
ATOM    139  H   UNK A   1     -16.489  18.268  -2.370  1.00  0.00    +0.029 HD
ATOM    140  H   UNK A   1     -15.264  16.409  -3.908  1.00  0.00    +0.049 HD
ATOM    141  H   UNK A   1     -15.994  15.274  -2.781  1.00  0.00    +0.049 HD
ATOM    142  H   UNK A   1     -18.091  16.534  -3.186  1.00  0.00    +0.163 HD
ATOM    143  H   UNK A   1     -17.238  18.052  -6.528  1.00  0.00    +0.191 HD
ATOM    144  H   UNK A   1     -19.313  17.498  -4.233  1.00  0.00    +0.159 HD
ATOM    145  H   UNK A   1     -18.636  18.781  -4.640  1.00  0.00    +0.159 HD
ATOM    146  H   UNK A   1     -16.529  13.757   0.900  1.00  0.00    +0.066 HD
ATOM    147  H   UNK A   1     -14.395  13.665   2.778  1.00  0.00    +0.040 HD
ATOM    148  H   UNK A   1     -14.462  15.363   2.272  1.00  0.00    +0.040 HD
ATOM    149  H   UNK A   1     -11.782  13.222  -0.783  1.00  0.00    +0.067 HD
ATOM    150  H   UNK A   1     -12.970  15.306  -1.625  1.00  0.00    +0.041 HD
ATOM    151  H   UNK A   1     -11.429  14.936  -2.390  1.00  0.00    +0.041 HD
ATOM    152  H   UNK A   1     -18.123  11.740   4.851  1.00  0.00    +0.066 HD
ATOM    153  H   UNK A   1     -15.223  11.278   4.310  1.00  0.00    +0.029 HD
ATOM    154  H   UNK A   1     -15.662  10.499   5.800  1.00  0.00    +0.029 HD
ATOM    155  H   UNK A   1     -15.825   8.998   3.844  1.00  0.00    +0.027 HD
ATOM    156  H   UNK A   1     -16.951  10.083   3.074  1.00  0.00    +0.027 HD
ATOM    157  H   UNK A   1     -18.523   9.612   5.177  1.00  0.00    +0.028 HD
ATOM    158  H   UNK A   1     -18.405   8.528   3.819  1.00  0.00    +0.028 HD
ATOM    159  H   UNK A   1     -18.360   7.162   5.720  1.00  0.00    +0.043 HD
ATOM    160  H   UNK A   1     -16.737   7.117   5.035  1.00  0.00    +0.043 HD
ATOM    161  H   UNK A   1     -17.601   8.740   7.314  1.00  0.00    +0.118 HD
ATOM    162  H   UNK A   1     -16.181   8.798   6.716  1.00  0.00    +0.118 HD
ATOM    163  H   UNK A   1      -7.610  15.108  -0.702  1.00  0.00    +0.069 HD
ATOM    164  H   UNK A   1      -7.364  12.049  -1.034  1.00  0.00    +0.063 HD
ATOM    165  H   UNK A   1      -5.220  12.989  -1.952  1.00  0.00    +0.026 HD
ATOM    166  H   UNK A   1      -5.084  14.034  -0.516  1.00  0.00    +0.026 HD
ATOM    167  H   UNK A   1      -4.973  12.292  -0.347  1.00  0.00    +0.026 HD
ATOM    168  H   UNK A   1      -8.036  13.377   0.899  1.00  0.00    +0.211 HD
ATOM    169  H   UNK A   1     -17.285  11.696   9.334  1.00  0.00    +0.065 HD
ATOM    170  H   UNK A   1     -20.148  12.342   8.378  1.00  0.00    +0.026 HD
ATOM    171  H   UNK A   1     -19.550  12.703   9.993  1.00  0.00    +0.026 HD
ATOM    172  H   UNK A   1     -18.849  13.521   8.598  1.00  0.00    +0.026 HD
ATOM    173  H   UNK A   1      -7.122  15.667  -4.925  1.00  0.00    +0.066 HD
ATOM    174  H   UNK A   1      -7.306  18.076  -4.937  1.00  0.00    +0.030 HD
ATOM    175  H   UNK A   1      -6.397  18.234  -3.459  1.00  0.00    +0.030 HD
ATOM    176  H   UNK A   1      -8.550  18.841  -2.914  1.00  0.00    +0.036 HD
ATOM    177  H   UNK A   1      -8.390  17.239  -2.174  1.00  0.00    +0.036 HD
ATOM    178  H   UNK A   1      -9.951  15.993  -4.188  1.00  0.00    +0.084 HD
ATOM    179  H   UNK A   1      -9.344  17.909  -6.095  1.00  0.00    +0.033 HD
ATOM    180  H   UNK A   1     -11.099  18.032  -5.864  1.00  0.00    +0.033 HD
ATOM    181  H   UNK A   1     -10.009  19.307  -5.205  1.00  0.00    +0.033 HD
ATOM    182  H   UNK A   1     -18.513   8.113  11.092  1.00  0.00    +0.068 HD
ATOM    183  H   UNK A   1     -18.721   9.890  13.582  1.00  0.00    +0.041 HD
ATOM    184  H   UNK A   1     -17.192   9.434  12.829  1.00  0.00    +0.041 HD
ATOM    185  H   UNK A   1     -19.510   7.381  13.895  1.00  0.00    +0.102 HD
ATOM    186  H   UNK A   1     -20.511   8.953   9.906  1.00  0.00    +0.296 HD
ATOM    187  H   UNK A   1      -4.057  18.034  -7.343  1.00  0.00    +0.064 HD
ATOM    188  H   UNK A   1      -3.203  17.764  -5.820  1.00  0.00    +0.064 HD
ATOM    189  H   UNK A   1      -4.231  15.104  -6.457  1.00  0.00    +0.296 HD
ATOM    190  H   UNK A   1     -11.618  22.328  -1.835  1.00  0.00    +0.063 HD
ATOM    191  H   UNK A   1     -13.489  22.713  -3.369  1.00  0.00    +0.063 HD
ATOM    192  H   UNK A   1     -15.637  21.260  -4.234  1.00  0.00    +0.043 HD
ATOM    193  H   UNK A   1     -15.145  19.990  -5.379  1.00  0.00    +0.043 HD
ATOM    194  H   UNK A   1     -13.466  18.561  -4.421  1.00  0.00    +0.063 HD
ATOM    195  H   UNK A   1     -12.221  17.042  -3.352  1.00  0.00    +0.057 HD
ATOM    196  H   UNK A   1      -9.713  19.255  -1.266  1.00  0.00    +0.028 HD
ATOM    197  H   UNK A   1     -10.891  20.044  -0.199  1.00  0.00    +0.028 HD
ATOM    198  H   UNK A   1      -9.733  20.997  -1.157  1.00  0.00    +0.028 HD
ENDROOT
TORSDOF 0
ENDMDL
