MODEL 1
REMARK VINA RESULT:      -6.6      0.000      0.000
REMARK  Generated by RDKit with Gasteiger charges
REMARK  --------------------------------------------------
ROOT
ATOM      1  N   UNK A   1     -14.562   8.162  -4.577  1.00  0.00    -0.131 N 
ATOM      2  C   UNK A   1     -15.249   9.244  -3.829  1.00  0.00    +0.121 C 
ATOM      3  C   UNK A   1     -16.634   8.718  -3.466  1.00  0.00    -0.037 C 
ATOM      4  C   UNK A   1     -14.430   9.539  -2.556  1.00  0.00    +0.262 C 
ATOM      5  O   UNK A   1     -13.874   8.599  -1.964  1.00  0.00    -0.271 OA
ATOM      6  N   UNK A   1     -14.357  10.810  -2.125  1.00  0.00    -0.236 N 
ATOM      7  C   UNK A   1     -15.328  11.847  -2.614  1.00  0.00    +0.143 C 
ATOM      8  C   UNK A   1     -15.523  13.010  -1.576  1.00  0.00    +0.025 C 
ATOM      9  S   UNK A   1     -16.282  12.581   0.085  1.00  0.00    -0.154 S 
ATOM     10  C   UNK A   1     -14.792  12.537  -3.922  1.00  0.00    +0.267 C 
ATOM     11  O   UNK A   1     -13.605  12.848  -4.051  1.00  0.00    -0.270 OA
ATOM     12  N   UNK A   1     -15.769  12.728  -4.833  1.00  0.00    -0.235 N 
ATOM     13  C   UNK A   1     -15.615  13.949  -5.709  1.00  0.00    +0.143 C 
ATOM     14  C   UNK A   1     -14.503  13.733  -6.775  1.00  0.00    +0.058 C 
ATOM     15  C   UNK A   1     -13.245  14.592  -6.674  1.00  0.00    +0.220 C 
ATOM     16  O   UNK A   1     -12.534  14.830  -7.660  1.00  0.00    -0.275 OA
ATOM     17  N   UNK A   1     -12.852  14.977  -5.417  1.00  0.00    -0.370 N 
ATOM     18  C   UNK A   1     -16.950  14.218  -6.503  1.00  0.00    +0.267 C 
ATOM     19  O   UNK A   1     -17.274  13.475  -7.442  1.00  0.00    -0.270 OA
ATOM     20  N   UNK A   1     -17.713  15.262  -6.109  1.00  0.00    -0.236 N 
ATOM     21  C   UNK A   1     -17.123  16.645  -6.044  1.00  0.00    +0.134 C 
ATOM     22  C   UNK A   1     -16.496  17.013  -7.410  1.00  0.00    -0.020 C 
ATOM     23  C   UNK A   1     -15.926  18.426  -7.568  1.00  0.00    -0.033 C 
ATOM     24  C   UNK A   1     -14.885  18.822  -6.513  1.00  0.00    +0.018 C 
ATOM     25  N   UNK A   1     -15.430  19.752  -5.543  1.00  0.00    -0.357 N 
ATOM     26  C   UNK A   1     -15.841  20.990  -5.889  1.00  0.00    +0.185 C 
ATOM     27  N   UNK A   1     -15.281  21.806  -6.726  1.00  0.00    -0.270 N 
ATOM     28  N   UNK A   1     -16.995  21.360  -5.290  1.00  0.00    -0.370 N 
ATOM     29  C   UNK A   1     -18.258  17.703  -5.689  1.00  0.00    +0.266 C 
ATOM     30  O   UNK A   1     -19.272  17.835  -6.383  1.00  0.00    -0.270 OA
ATOM     31  N   UNK A   1     -17.880  18.549  -4.698  1.00  0.00    -0.239 N 
ATOM     32  C   UNK A   1     -18.922  18.790  -3.644  1.00  0.00    +0.124 C 
ATOM     33  C   UNK A   1     -18.546  19.879  -2.568  1.00  0.00    +0.263 C 
ATOM     34  O   UNK A   1     -17.626  20.683  -2.770  1.00  0.00    -0.271 OA
ATOM     35  N   UNK A   1     -19.395  19.842  -1.507  1.00  0.00    -0.236 N 
ATOM     36  C   UNK A   1     -19.062  20.728  -0.306  1.00  0.00    +0.138 C 
ATOM     37  C   UNK A   1     -19.399  22.216  -0.657  1.00  0.00    +0.006 C 
ATOM     38  C   UNK A   1     -18.801  23.204   0.308  1.00  0.00    -0.020 C 
ATOM     39  C   UNK A   1     -19.349  23.513   1.537  1.00  0.00    +0.005 C 
ATOM     40  N   UNK A   1     -18.311  23.934   2.327  1.00  0.00    -0.361 N 
ATOM     41  C   UNK A   1     -17.257  24.342   1.531  1.00  0.00    +0.046 C 
ATOM     42  C   UNK A   1     -16.037  24.940   1.870  1.00  0.00    -0.038 C 
ATOM     43  C   UNK A   1     -15.075  25.068   0.861  1.00  0.00    -0.060 C 
ATOM     44  C   UNK A   1     -15.312  24.586  -0.426  1.00  0.00    -0.062 C 
ATOM     45  C   UNK A   1     -16.527  23.962  -0.738  1.00  0.00    -0.053 C 
ATOM     46  C   UNK A   1     -17.530  23.855   0.249  1.00  0.00    +0.003 C 
ATOM     47  C   UNK A   1     -19.908  20.335   1.031  1.00  0.00    +0.267 C 
ATOM     48  O   UNK A   1     -21.121  20.111   0.962  1.00  0.00    -0.270 OA
ATOM     49  N   UNK A   1     -19.148  20.384   2.164  1.00  0.00    -0.235 N 
ATOM     50  C   UNK A   1     -19.826  20.249   3.540  1.00  0.00    +0.143 C 
ATOM     51  C   UNK A   1     -19.408  18.883   4.225  1.00  0.00    +0.027 C 
ATOM     52  S   UNK A   1     -20.441  17.390   3.771  1.00  0.00    -0.140 S 
ATOM     53  C   UNK A   1     -19.349  21.452   4.540  1.00  0.00    +0.267 C 
ATOM     54  O   UNK A   1     -18.253  22.010   4.412  1.00  0.00    -0.270 OA
ATOM     55  N   UNK A   1     -20.272  21.758   5.505  1.00  0.00    -0.236 N 
ATOM     56  C   UNK A   1     -19.785  22.655   6.629  1.00  0.00    +0.134 C 
ATOM     57  C   UNK A   1     -19.566  24.121   6.150  1.00  0.00    -0.021 C 
ATOM     58  C   UNK A   1     -20.746  24.714   5.362  1.00  0.00    -0.050 C 
ATOM     59  C   UNK A   1     -20.933  26.223   5.562  1.00  0.00    -0.041 C 
ATOM     60  C   UNK A   1     -21.331  26.555   7.000  1.00  0.00    -0.008 C 
ATOM     61  N   UNK A   1     -21.970  27.894   7.102  1.00  0.00    -0.330 N 
ATOM     62  C   UNK A   1     -20.704  22.771   7.940  1.00  0.00    +0.266 C 
ATOM     63  O   UNK A   1     -21.907  23.047   7.879  1.00  0.00    -0.270 OA
ATOM     64  N   UNK A   1     -19.946  22.728   9.065  1.00  0.00    -0.236 N 
ATOM     65  C   UNK A   1     -20.515  23.086  10.407  1.00  0.00    +0.138 C 
ATOM     66  C   UNK A   1     -21.307  24.423  10.362  1.00  0.00    +0.004 C 
ATOM     67  C   UNK A   1     -21.031  25.361  11.532  1.00  0.00    -0.045 C 
ATOM     68  C   UNK A   1     -21.759  25.264  12.721  1.00  0.00    -0.059 C 
ATOM     69  C   UNK A   1     -21.487  26.112  13.794  1.00  0.00    -0.062 C 
ATOM     70  C   UNK A   1     -20.474  27.067  13.692  1.00  0.00    -0.062 C 
ATOM     71  C   UNK A   1     -19.736  27.169  12.513  1.00  0.00    -0.062 C 
ATOM     72  C   UNK A   1     -20.011  26.319  11.441  1.00  0.00    -0.059 C 
ATOM     73  C   UNK A   1     -21.282  21.993  11.234  1.00  0.00    +0.267 C 
ATOM     74  O   UNK A   1     -22.404  22.200  11.714  1.00  0.00    -0.270 OA
ATOM     75  N   UNK A   1     -20.527  20.913  11.537  1.00  0.00    -0.236 N 
ATOM     76  C   UNK A   1     -21.195  19.627  11.180  1.00  0.00    +0.130 C 
ATOM     77  C   UNK A   1     -21.427  19.528   9.661  1.00  0.00    -0.033 C 
ATOM     78  C   UNK A   1     -20.383  18.367  11.622  1.00  0.00    +0.247 C 
ATOM     79  O   UNK A   1     -19.340  18.380  12.286  1.00  0.00    -0.272 OA
ATOM     80  N   UNK A   1     -21.029  17.140  11.313  1.00  0.00    -0.329 N 
ATOM     81  C   UNK A   1     -22.200  16.856  12.105  1.00  0.00    +0.021 C 
ATOM     82  C   UNK A   1     -21.776  15.749  13.078  1.00  0.00    -0.033 C 
ATOM     83  C   UNK A   1     -20.354  15.357  12.661  1.00  0.00    -0.022 C 
ATOM     84  C   UNK A   1     -20.231  15.903  11.231  1.00  0.00    +0.113 C 
ATOM     85  C   UNK A   1     -20.812  14.802  10.261  1.00  0.00    +0.264 C 
ATOM     86  O   UNK A   1     -21.987  14.432  10.350  1.00  0.00    -0.271 OA
ATOM     87  N   UNK A   1     -19.855  14.284   9.468  1.00  0.00    -0.235 N 
ATOM     88  C   UNK A   1     -20.363  13.646   8.202  1.00  0.00    +0.143 C 
ATOM     89  C   UNK A   1     -19.610  14.121   6.902  1.00  0.00    +0.027 C 
ATOM     90  S   UNK A   1     -19.887  15.904   6.428  1.00  0.00    -0.140 S 
ATOM     91  C   UNK A   1     -20.299  12.083   8.319  1.00  0.00    +0.267 C 
ATOM     92  O   UNK A   1     -21.231  11.375   7.925  1.00  0.00    -0.270 OA
ATOM     93  N   UNK A   1     -19.146  11.622   8.840  1.00  0.00    -0.238 N 
ATOM     94  C   UNK A   1     -19.258  10.330   9.524  1.00  0.00    +0.140 C 
ATOM     95  C   UNK A   1     -19.312  10.538  11.025  1.00  0.00    +0.325 C 
ATOM     96  O   UNK A   1     -19.328   9.617  11.843  1.00  0.00    -0.250 OA
ATOM     97  O   UNK A   1     -19.298  11.835  11.405  1.00  0.00    -0.480 OA
ATOM     98  C   UNK A   1     -15.801  15.362   3.901  1.00  0.00    -0.059 C 
ATOM     99  C   UNK A   1     -15.842  14.776   2.630  1.00  0.00    -0.058 C 
ATOM    100  C   UNK A   1     -17.058  14.600   1.971  1.00  0.00    -0.038 C 
ATOM    101  C   UNK A   1     -17.087  14.203   0.492  1.00  0.00    +0.019 C 
ATOM    102  C   UNK A   1     -18.232  14.985   2.667  1.00  0.00    -0.053 C 
ATOM    103  C   UNK A   1     -18.228  15.565   3.982  1.00  0.00    -0.022 C 
ATOM    104  C   UNK A   1     -19.595  15.941   4.597  1.00  0.00    +0.076 C 
ATOM    105  C   UNK A   1     -16.968  15.802   4.568  1.00  0.00    -0.046 C 
ATOM    106  C   UNK A   1     -16.779  16.532   5.871  1.00  0.00    -0.039 C 
ATOM    107  H   UNK A   1     -15.310  10.086  -4.511  1.00  0.00    +0.060 HD
ATOM    108  H   UNK A   1     -17.208   9.450  -2.889  1.00  0.00    +0.025 HD
ATOM    109  H   UNK A   1     -16.571   7.812  -2.852  1.00  0.00    +0.025 HD
ATOM    110  H   UNK A   1     -17.210   8.476  -4.364  1.00  0.00    +0.025 HD
ATOM    111  H   UNK A   1     -16.326  11.436  -2.800  1.00  0.00    +0.067 HD
ATOM    112  H   UNK A   1     -14.555  13.475  -1.354  1.00  0.00    +0.041 HD
ATOM    113  H   UNK A   1     -16.158  13.780  -2.031  1.00  0.00    +0.041 HD
ATOM    114  H   UNK A   1     -15.407  14.822  -5.086  1.00  0.00    +0.066 HD
ATOM    115  H   UNK A   1     -14.167  12.688  -6.790  1.00  0.00    +0.039 HD
ATOM    116  H   UNK A   1     -14.894  13.943  -7.778  1.00  0.00    +0.039 HD
ATOM    117  H   UNK A   1     -13.577  15.558  -4.994  1.00  0.00    +0.159 HD
ATOM    118  H   UNK A   1     -13.008  14.164  -4.790  1.00  0.00    +0.159 HD
ATOM    119  H   UNK A   1     -16.361  16.699  -5.257  1.00  0.00    +0.066 HD
ATOM    120  H   UNK A   1     -17.241  16.865  -8.204  1.00  0.00    +0.029 HD
ATOM    121  H   UNK A   1     -15.682  16.310  -7.632  1.00  0.00    +0.029 HD
ATOM    122  H   UNK A   1     -16.747  19.150  -7.630  1.00  0.00    +0.029 HD
ATOM    123  H   UNK A   1     -15.430  18.455  -8.549  1.00  0.00    +0.029 HD
ATOM    124  H   UNK A   1     -14.494  17.941  -5.990  1.00  0.00    +0.049 HD
ATOM    125  H   UNK A   1     -14.025  19.293  -7.004  1.00  0.00    +0.049 HD
ATOM    126  H   UNK A   1     -16.159  19.256  -4.982  1.00  0.00    +0.163 HD
ATOM    127  H   UNK A   1     -15.946  22.587  -6.671  1.00  0.00    +0.191 HD
ATOM    128  H   UNK A   1     -17.659  20.557  -5.361  1.00  0.00    +0.159 HD
ATOM    129  H   UNK A   1     -16.927  21.223  -4.257  1.00  0.00    +0.159 HD
ATOM    130  H   UNK A   1     -19.110  17.852  -3.102  1.00  0.00    +0.062 HD
ATOM    131  H   UNK A   1     -19.871  19.113  -4.092  1.00  0.00    +0.062 HD
ATOM    132  H   UNK A   1     -17.995  20.631  -0.061  1.00  0.00    +0.066 HD
ATOM    133  H   UNK A   1     -20.488  22.350  -0.685  1.00  0.00    +0.034 HD
ATOM    134  H   UNK A   1     -19.050  22.470  -1.668  1.00  0.00    +0.034 HD
ATOM    135  H   UNK A   1     -20.242  23.115   2.008  1.00  0.00    +0.082 HD
ATOM    136  H   UNK A   1     -18.265  23.707   3.317  1.00  0.00    +0.166 HD
ATOM    137  H   UNK A   1     -15.833  25.213   2.898  1.00  0.00    +0.064 HD
ATOM    138  H   UNK A   1     -14.104  25.481   1.108  1.00  0.00    +0.062 HD
ATOM    139  H   UNK A   1     -14.534  24.611  -1.178  1.00  0.00    +0.062 HD
ATOM    140  H   UNK A   1     -16.695  23.484  -1.700  1.00  0.00    +0.063 HD
ATOM    141  H   UNK A   1     -20.919  20.315   3.469  1.00  0.00    +0.067 HD
ATOM    142  H   UNK A   1     -19.481  18.980   5.312  1.00  0.00    +0.041 HD
ATOM    143  H   UNK A   1     -18.366  18.653   3.978  1.00  0.00    +0.041 HD
ATOM    144  H   UNK A   1     -18.810  22.275   6.978  1.00  0.00    +0.066 HD
ATOM    145  H   UNK A   1     -18.665  24.185   5.528  1.00  0.00    +0.029 HD
ATOM    146  H   UNK A   1     -19.341  24.739   7.026  1.00  0.00    +0.029 HD
ATOM    147  H   UNK A   1     -20.592  24.521   4.293  1.00  0.00    +0.027 HD
ATOM    148  H   UNK A   1     -21.687  24.214   5.621  1.00  0.00    +0.027 HD
ATOM    149  H   UNK A   1     -20.017  26.765   5.288  1.00  0.00    +0.028 HD
ATOM    150  H   UNK A   1     -21.720  26.554   4.873  1.00  0.00    +0.028 HD
ATOM    151  H   UNK A   1     -22.051  25.820   7.378  1.00  0.00    +0.043 HD
ATOM    152  H   UNK A   1     -20.453  26.551   7.655  1.00  0.00    +0.043 HD
ATOM    153  H   UNK A   1     -22.812  27.809   6.534  1.00  0.00    +0.118 HD
ATOM    154  H   UNK A   1     -22.290  27.929   8.068  1.00  0.00    +0.118 HD
ATOM    155  H   UNK A   1     -19.632  23.291  11.034  1.00  0.00    +0.066 HD
ATOM    156  H   UNK A   1     -21.061  24.991   9.459  1.00  0.00    +0.034 HD
ATOM    157  H   UNK A   1     -22.388  24.245  10.297  1.00  0.00    +0.034 HD
ATOM    158  H   UNK A   1     -22.515  24.483  12.804  1.00  0.00    +0.063 HD
ATOM    159  H   UNK A   1     -22.048  25.990  14.713  1.00  0.00    +0.062 HD
ATOM    160  H   UNK A   1     -20.249  27.709  14.535  1.00  0.00    +0.062 HD
ATOM    161  H   UNK A   1     -18.924  27.880  12.424  1.00  0.00    +0.062 HD
ATOM    162  H   UNK A   1     -19.419  26.356  10.527  1.00  0.00    +0.063 HD
ATOM    163  H   UNK A   1     -22.171  19.571  11.678  1.00  0.00    +0.065 HD
ATOM    164  H   UNK A   1     -21.943  18.601   9.392  1.00  0.00    +0.026 HD
ATOM    165  H   UNK A   1     -20.478  19.544   9.111  1.00  0.00    +0.026 HD
ATOM    166  H   UNK A   1     -22.050  20.348   9.290  1.00  0.00    +0.026 HD
ATOM    167  H   UNK A   1     -22.568  17.724  12.659  1.00  0.00    +0.049 HD
ATOM    168  H   UNK A   1     -23.004  16.512  11.441  1.00  0.00    +0.049 HD
ATOM    169  H   UNK A   1     -21.792  16.099  14.115  1.00  0.00    +0.029 HD
ATOM    170  H   UNK A   1     -22.461  14.896  13.014  1.00  0.00    +0.029 HD
ATOM    171  H   UNK A   1     -20.185  14.279  12.742  1.00  0.00    +0.029 HD
ATOM    172  H   UNK A   1     -19.634  15.857  13.320  1.00  0.00    +0.029 HD
ATOM    173  H   UNK A   1     -19.188  16.133  10.980  1.00  0.00    +0.064 HD
ATOM    174  H   UNK A   1     -21.428  13.871   8.033  1.00  0.00    +0.067 HD
ATOM    175  H   UNK A   1     -18.531  13.971   7.016  1.00  0.00    +0.041 HD
ATOM    176  H   UNK A   1     -19.942  13.503   6.060  1.00  0.00    +0.041 HD
ATOM    177  H   UNK A   1     -18.357   9.736   9.325  1.00  0.00    +0.064 HD
ATOM    178  H   UNK A   1     -20.123   9.720   9.240  1.00  0.00    +0.064 HD
ATOM    179  H   UNK A   1     -19.354  12.375  10.548  1.00  0.00    +0.296 HD
ATOM    180  H   UNK A   1     -14.831  15.540   4.355  1.00  0.00    +0.063 HD
ATOM    181  H   UNK A   1     -14.913  14.525   2.124  1.00  0.00    +0.063 HD
ATOM    182  H   UNK A   1     -18.124  14.136   0.146  1.00  0.00    +0.043 HD
ATOM    183  H   UNK A   1     -16.600  15.005  -0.074  1.00  0.00    +0.043 HD
ATOM    184  H   UNK A   1     -19.188  14.902   2.148  1.00  0.00    +0.063 HD
ATOM    185  H   UNK A   1     -20.250  15.117   4.285  1.00  0.00    +0.058 HD
ATOM    186  H   UNK A   1     -15.766  16.939   5.944  1.00  0.00    +0.028 HD
ATOM    187  H   UNK A   1     -16.916  15.851   6.714  1.00  0.00    +0.028 HD
ATOM    188  H   UNK A   1     -17.451  17.389   5.953  1.00  0.00    +0.028 HD
ENDROOT
TORSDOF 0
ENDMDL
MODEL 2
REMARK VINA RESULT:      -2.9      7.277     18.681
REMARK  Generated by RDKit with Gasteiger charges
REMARK  --------------------------------------------------
ROOT
ATOM      1  N   UNK A   1     -19.670  26.692  -0.104  1.00  0.00    -0.131 N 
ATOM      2  C   UNK A   1     -18.857  25.665  -0.801  1.00  0.00    +0.121 C 
ATOM      3  C   UNK A   1     -18.510  26.235  -2.173  1.00  0.00    -0.037 C 
ATOM      4  C   UNK A   1     -17.578  25.425   0.026  1.00  0.00    +0.262 C 
ATOM      5  O   UNK A   1     -17.044  26.385   0.605  1.00  0.00    -0.271 OA
ATOM      6  N   UNK A   1     -17.080  24.179   0.082  1.00  0.00    -0.236 N 
ATOM      7  C   UNK A   1     -17.502  23.133  -0.912  1.00  0.00    +0.143 C 
ATOM      8  C   UNK A   1     -16.400  22.032  -1.116  1.00  0.00    +0.025 C 
ATOM      9  S   UNK A   1     -14.758  22.565  -1.850  1.00  0.00    -0.154 S 
ATOM     10  C   UNK A   1     -18.775  22.364  -0.403  1.00  0.00    +0.267 C 
ATOM     11  O   UNK A   1     -18.898  22.026   0.778  1.00  0.00    -0.270 OA
ATOM     12  N   UNK A   1     -19.665  22.141  -1.392  1.00  0.00    -0.235 N 
ATOM     13  C   UNK A   1     -20.474  20.872  -1.268  1.00  0.00    +0.143 C 
ATOM     14  C   UNK A   1     -21.562  21.010  -0.164  1.00  0.00    +0.058 C 
ATOM     15  C   UNK A   1     -21.426  20.136   1.079  1.00  0.00    +0.220 C 
ATOM     16  O   UNK A   1     -22.404  19.832   1.776  1.00  0.00    -0.275 OA
ATOM     17  N   UNK A   1     -20.154  19.812   1.479  1.00  0.00    -0.370 N 
ATOM     18  C   UNK A   1     -21.239  20.583  -2.617  1.00  0.00    +0.267 C 
ATOM     19  O   UNK A   1     -22.214  21.280  -2.937  1.00  0.00    -0.270 OA
ATOM     20  N   UNK A   1     -20.782  19.576  -3.393  1.00  0.00    -0.236 N 
ATOM     21  C   UNK A   1     -20.647  18.189  -2.826  1.00  0.00    +0.134 C 
ATOM     22  C   UNK A   1     -21.997  17.736  -2.220  1.00  0.00    -0.020 C 
ATOM     23  C   UNK A   1     -22.083  16.306  -1.676  1.00  0.00    -0.033 C 
ATOM     24  C   UNK A   1     -21.018  15.950  -0.631  1.00  0.00    +0.018 C 
ATOM     25  N   UNK A   1     -19.993  15.084  -1.182  1.00  0.00    -0.357 N 
ATOM     26  C   UNK A   1     -20.268  13.837  -1.617  1.00  0.00    +0.185 C 
ATOM     27  N   UNK A   1     -21.064  12.966  -1.080  1.00  0.00    -0.270 N 
ATOM     28  N   UNK A   1     -19.638  13.521  -2.771  1.00  0.00    -0.370 N 
ATOM     29  C   UNK A   1     -20.224  17.172  -3.975  1.00  0.00    +0.266 C 
ATOM     30  O   UNK A   1     -20.899  17.020  -4.999  1.00  0.00    -0.270 OA
ATOM     31  N   UNK A   1     -19.192  16.374  -3.601  1.00  0.00    -0.239 N 
ATOM     32  C   UNK A   1     -18.116  16.210  -4.636  1.00  0.00    +0.124 C 
ATOM     33  C   UNK A   1     -16.986  15.174  -4.267  1.00  0.00    +0.263 C 
ATOM     34  O   UNK A   1     -17.152  14.344  -3.363  1.00  0.00    -0.271 OA
ATOM     35  N   UNK A   1     -15.920  15.284  -5.104  1.00  0.00    -0.236 N 
ATOM     36  C   UNK A   1     -14.676  14.458  -4.773  1.00  0.00    +0.138 C 
ATOM     37  C   UNK A   1     -14.942  12.960  -5.139  1.00  0.00    +0.006 C 
ATOM     38  C   UNK A   1     -13.930  12.015  -4.548  1.00  0.00    -0.020 C 
ATOM     39  C   UNK A   1     -12.681  11.784  -5.088  1.00  0.00    +0.005 C 
ATOM     40  N   UNK A   1     -11.879  11.388  -4.049  1.00  0.00    -0.361 N 
ATOM     41  C   UNK A   1     -12.663  10.919  -3.011  1.00  0.00    +0.046 C 
ATOM     42  C   UNK A   1     -12.303  10.318  -1.798  1.00  0.00    -0.038 C 
ATOM     43  C   UNK A   1     -13.313  10.119  -0.849  1.00  0.00    -0.060 C 
ATOM     44  C   UNK A   1     -14.622  10.534  -1.091  1.00  0.00    -0.062 C 
ATOM     45  C   UNK A   1     -14.955  11.161  -2.299  1.00  0.00    -0.053 C 
ATOM     46  C   UNK A   1     -13.966  11.340  -3.289  1.00  0.00    +0.003 C 
ATOM     47  C   UNK A   1     -13.354  14.938  -5.597  1.00  0.00    +0.267 C 
ATOM     48  O   UNK A   1     -13.424  15.180  -6.807  1.00  0.00    -0.270 OA
ATOM     49  N   UNK A   1     -12.227  14.938  -4.826  1.00  0.00    -0.235 N 
ATOM     50  C   UNK A   1     -10.854  15.160  -5.487  1.00  0.00    +0.143 C 
ATOM     51  C   UNK A   1     -10.249  16.554  -5.038  1.00  0.00    +0.027 C 
ATOM     52  S   UNK A   1     -10.774  18.037  -6.050  1.00  0.00    -0.140 S 
ATOM     53  C   UNK A   1      -9.795  14.004  -5.020  1.00  0.00    +0.267 C 
ATOM     54  O   UNK A   1      -9.903  13.421  -3.935  1.00  0.00    -0.270 OA
ATOM     55  N   UNK A   1      -8.806  13.767  -5.938  1.00  0.00    -0.236 N 
ATOM     56  C   UNK A   1      -7.639  12.925  -5.454  1.00  0.00    +0.134 C 
ATOM     57  C   UNK A   1      -8.040  11.431  -5.265  1.00  0.00    -0.021 C 
ATOM     58  C   UNK A   1      -8.783  10.817  -6.464  1.00  0.00    -0.050 C 
ATOM     59  C   UNK A   1      -8.499   9.325  -6.675  1.00  0.00    -0.041 C 
ATOM     60  C   UNK A   1      -7.041   9.079  -7.062  1.00  0.00    -0.008 C 
ATOM     61  N   UNK A   1      -6.860   7.759  -7.724  1.00  0.00    -0.330 N 
ATOM     62  C   UNK A   1      -6.315  12.896  -6.361  1.00  0.00    +0.266 C 
ATOM     63  O   UNK A   1      -6.350  12.639  -7.569  1.00  0.00    -0.270 OA
ATOM     64  N   UNK A   1      -5.201  12.988  -5.591  1.00  0.00    -0.236 N 
ATOM     65  C   UNK A   1      -3.836  12.713  -6.151  1.00  0.00    +0.138 C 
ATOM     66  C   UNK A   1      -3.800  11.390  -6.966  1.00  0.00    +0.004 C 
ATOM     67  C   UNK A   1      -2.584  10.512  -6.694  1.00  0.00    -0.045 C 
ATOM     68  C   UNK A   1      -1.395  10.687  -7.407  1.00  0.00    -0.059 C 
ATOM     69  C   UNK A   1      -0.280   9.893  -7.138  1.00  0.00    -0.062 C 
ATOM     70  C   UNK A   1      -0.340   8.916  -6.143  1.00  0.00    -0.062 C 
ATOM     71  C   UNK A   1      -1.519   8.738  -5.419  1.00  0.00    -0.062 C 
ATOM     72  C   UNK A   1      -2.633   9.533  -5.691  1.00  0.00    -0.059 C 
ATOM     73  C   UNK A   1      -3.063  13.863  -6.890  1.00  0.00    +0.267 C 
ATOM     74  O   UNK A   1      -2.561  13.702  -8.010  1.00  0.00    -0.270 OA
ATOM     75  N   UNK A   1      -2.827  14.944  -6.113  1.00  0.00    -0.236 N 
ATOM     76  C   UNK A   1      -3.247  16.220  -6.763  1.00  0.00    +0.130 C 
ATOM     77  C   UNK A   1      -4.767  16.241  -7.009  1.00  0.00    -0.033 C 
ATOM     78  C   UNK A   1      -2.883  17.488  -5.925  1.00  0.00    +0.247 C 
ATOM     79  O   UNK A   1      -2.228  17.493  -4.875  1.00  0.00    -0.272 OA
ATOM     80  N   UNK A   1      -3.252  18.707  -6.553  1.00  0.00    -0.329 N 
ATOM     81  C   UNK A   1      -2.464  19.055  -7.710  1.00  0.00    +0.021 C 
ATOM     82  C   UNK A   1      -1.557  20.206  -7.257  1.00  0.00    -0.033 C 
ATOM     83  C   UNK A   1      -2.009  20.549  -5.833  1.00  0.00    -0.022 C 
ATOM     84  C   UNK A   1      -3.408  19.924  -5.734  1.00  0.00    +0.113 C 
ATOM     85  C   UNK A   1      -4.432  20.981  -6.307  1.00  0.00    +0.264 C 
ATOM     86  O   UNK A   1      -4.351  21.376  -7.474  1.00  0.00    -0.271 OA
ATOM     87  N   UNK A   1      -5.261  21.437  -5.350  1.00  0.00    -0.235 N 
ATOM     88  C   UNK A   1      -6.554  22.015  -5.861  1.00  0.00    +0.143 C 
ATOM     89  C   UNK A   1      -7.835  21.456  -5.130  1.00  0.00    +0.027 C 
ATOM     90  S   UNK A   1      -8.208  19.655  -5.442  1.00  0.00    -0.140 S 
ATOM     91  C   UNK A   1      -6.523  23.581  -5.769  1.00  0.00    +0.267 C 
ATOM     92  O   UNK A   1      -6.946  24.282  -6.692  1.00  0.00    -0.270 OA
ATOM     93  N   UNK A   1      -6.040  24.049  -4.602  1.00  0.00    -0.238 N 
ATOM     94  C   UNK A   1      -5.427  25.377  -4.685  1.00  0.00    +0.140 C 
ATOM     95  C   UNK A   1      -3.915  25.253  -4.725  1.00  0.00    +0.325 C 
ATOM     96  O   UNK A   1      -3.149  26.217  -4.717  1.00  0.00    -0.250 OA
ATOM     97  O   UNK A   1      -3.466  23.979  -4.730  1.00  0.00    -0.480 OA
ATOM     98  C   UNK A   1     -10.800  19.987  -1.375  1.00  0.00    -0.059 C 
ATOM     99  C   UNK A   1     -12.101  20.504  -1.420  1.00  0.00    -0.058 C 
ATOM    100  C   UNK A   1     -12.757  20.665  -2.639  1.00  0.00    -0.038 C 
ATOM    101  C   UNK A   1     -14.254  20.982  -2.677  1.00  0.00    +0.019 C 
ATOM    102  C   UNK A   1     -12.029  20.340  -3.812  1.00  0.00    -0.053 C 
ATOM    103  C   UNK A   1     -10.684  19.831  -3.804  1.00  0.00    -0.022 C 
ATOM    104  C   UNK A   1     -10.036  19.514  -5.171  1.00  0.00    +0.076 C 
ATOM    105  C   UNK A   1     -10.099  19.605  -2.543  1.00  0.00    -0.046 C 
ATOM    106  C   UNK A   1      -8.760  18.944  -2.352  1.00  0.00    -0.039 C 
ATOM    107  H   UNK A   1     -19.492  24.788  -0.885  1.00  0.00    +0.060 HD
ATOM    108  H   UNK A   1     -17.889  25.545  -2.754  1.00  0.00    +0.025 HD
ATOM    109  H   UNK A   1     -17.947  27.171  -2.088  1.00  0.00    +0.025 HD
ATOM    110  H   UNK A   1     -19.414  26.437  -2.755  1.00  0.00    +0.025 HD
ATOM    111  H   UNK A   1     -17.700  23.552  -1.904  1.00  0.00    +0.067 HD
ATOM    112  H   UNK A   1     -16.162  21.563  -0.154  1.00  0.00    +0.041 HD
ATOM    113  H   UNK A   1     -16.806  21.250  -1.769  1.00  0.00    +0.041 HD
ATOM    114  H   UNK A   1     -19.807  20.030  -1.069  1.00  0.00    +0.066 HD
ATOM    115  H   UNK A   1     -21.637  22.046   0.190  1.00  0.00    +0.039 HD
ATOM    116  H   UNK A   1     -22.548  20.752  -0.569  1.00  0.00    +0.039 HD
ATOM    117  H   UNK A   1     -19.693  19.268   0.749  1.00  0.00    +0.159 HD
ATOM    118  H   UNK A   1     -19.570  20.661   1.344  1.00  0.00    +0.159 HD
ATOM    119  H   UNK A   1     -19.866  18.164  -2.057  1.00  0.00    +0.066 HD
ATOM    120  H   UNK A   1     -22.790  17.854  -2.971  1.00  0.00    +0.029 HD
ATOM    121  H   UNK A   1     -22.265  18.412  -1.397  1.00  0.00    +0.029 HD
ATOM    122  H   UNK A   1     -22.097  15.595  -2.510  1.00  0.00    +0.029 HD
ATOM    123  H   UNK A   1     -23.066  16.215  -1.192  1.00  0.00    +0.029 HD
ATOM    124  H   UNK A   1     -20.548  16.851  -0.220  1.00  0.00    +0.049 HD
ATOM    125  H   UNK A   1     -21.491  15.438   0.216  1.00  0.00    +0.049 HD
ATOM    126  H   UNK A   1     -19.453  15.623  -1.896  1.00  0.00    +0.163 HD
ATOM    127  H   UNK A   1     -20.960  12.202  -1.758  1.00  0.00    +0.191 HD
ATOM    128  H   UNK A   1     -19.746  14.329  -3.422  1.00  0.00    +0.159 HD
ATOM    129  H   UNK A   1     -18.615  13.711  -2.690  1.00  0.00    +0.159 HD
ATOM    130  H   UNK A   1     -17.624  17.178  -4.802  1.00  0.00    +0.062 HD
ATOM    131  H   UNK A   1     -18.537  15.879  -5.595  1.00  0.00    +0.062 HD
ATOM    132  H   UNK A   1     -14.447  14.550  -3.702  1.00  0.00    +0.066 HD
ATOM    133  H   UNK A   1     -14.952  12.844  -6.230  1.00  0.00    +0.034 HD
ATOM    134  H   UNK A   1     -15.940  12.645  -4.805  1.00  0.00    +0.034 HD
ATOM    135  H   UNK A   1     -12.223  12.223  -5.968  1.00  0.00    +0.082 HD
ATOM    136  H   UNK A   1     -10.904  11.668  -3.988  1.00  0.00    +0.166 HD
ATOM    137  H   UNK A   1     -11.263  10.098  -1.587  1.00  0.00    +0.064 HD
ATOM    138  H   UNK A   1     -13.054   9.702   0.118  1.00  0.00    +0.062 HD
ATOM    139  H   UNK A   1     -15.380  10.454  -0.322  1.00  0.00    +0.062 HD
ATOM    140  H   UNK A   1     -15.941  11.589  -2.469  1.00  0.00    +0.063 HD
ATOM    141  H   UNK A   1     -10.911  15.109  -6.582  1.00  0.00    +0.067 HD
ATOM    142  H   UNK A   1      -9.157  16.517  -5.101  1.00  0.00    +0.041 HD
ATOM    143  H   UNK A   1     -10.518  16.751  -3.996  1.00  0.00    +0.041 HD
ATOM    144  H   UNK A   1      -7.322  13.306  -4.469  1.00  0.00    +0.066 HD
ATOM    145  H   UNK A   1      -8.666  11.317  -4.372  1.00  0.00    +0.029 HD
ATOM    146  H   UNK A   1      -7.133  10.858  -5.042  1.00  0.00    +0.029 HD
ATOM    147  H   UNK A   1      -9.862  10.949  -6.318  1.00  0.00    +0.027 HD
ATOM    148  H   UNK A   1      -8.542  11.347  -7.393  1.00  0.00    +0.027 HD
ATOM    149  H   UNK A   1      -8.752   8.753  -5.771  1.00  0.00    +0.028 HD
ATOM    150  H   UNK A   1      -9.161   8.971  -7.474  1.00  0.00    +0.028 HD
ATOM    151  H   UNK A   1      -6.696   9.846  -7.766  1.00  0.00    +0.043 HD
ATOM    152  H   UNK A   1      -6.396   9.102  -6.178  1.00  0.00    +0.043 HD
ATOM    153  H   UNK A   1      -7.423   7.828  -8.570  1.00  0.00    +0.118 HD
ATOM    154  H   UNK A   1      -5.890   7.782  -8.034  1.00  0.00    +0.118 HD
ATOM    155  H   UNK A   1      -3.208  12.526  -5.264  1.00  0.00    +0.066 HD
ATOM    156  H   UNK A   1      -4.674  10.770  -6.740  1.00  0.00    +0.034 HD
ATOM    157  H   UNK A   1      -3.864  11.583  -8.045  1.00  0.00    +0.034 HD
ATOM    158  H   UNK A   1      -1.348  11.484  -8.148  1.00  0.00    +0.063 HD
ATOM    159  H   UNK A   1       0.636  10.075  -7.687  1.00  0.00    +0.062 HD
ATOM    160  H   UNK A   1       0.535   8.317  -5.920  1.00  0.00    +0.062 HD
ATOM    161  H   UNK A   1      -1.577   8.008  -4.621  1.00  0.00    +0.062 HD
ATOM    162  H   UNK A   1      -3.549   9.435  -5.110  1.00  0.00    +0.063 HD
ATOM    163  H   UNK A   1      -2.743  16.320  -7.732  1.00  0.00    +0.065 HD
ATOM    164  H   UNK A   1      -5.081  17.161  -7.512  1.00  0.00    +0.026 HD
ATOM    165  H   UNK A   1      -5.324  16.178  -6.067  1.00  0.00    +0.026 HD
ATOM    166  H   UNK A   1      -5.086  15.413  -7.651  1.00  0.00    +0.026 HD
ATOM    167  H   UNK A   1      -1.861  18.225  -8.087  1.00  0.00    +0.049 HD
ATOM    168  H   UNK A   1      -3.138  19.377  -8.515  1.00  0.00    +0.049 HD
ATOM    169  H   UNK A   1      -0.503  19.913  -7.267  1.00  0.00    +0.029 HD
ATOM    170  H   UNK A   1      -1.661  21.066  -7.928  1.00  0.00    +0.029 HD
ATOM    171  H   UNK A   1      -1.989  21.627  -5.644  1.00  0.00    +0.029 HD
ATOM    172  H   UNK A   1      -1.332  20.073  -5.114  1.00  0.00    +0.029 HD
ATOM    173  H   UNK A   1      -3.656  19.662  -4.698  1.00  0.00    +0.064 HD
ATOM    174  H   UNK A   1      -6.700  21.799  -6.931  1.00  0.00    +0.067 HD
ATOM    175  H   UNK A   1      -7.739  21.593  -4.048  1.00  0.00    +0.041 HD
ATOM    176  H   UNK A   1      -8.705  22.034  -5.460  1.00  0.00    +0.041 HD
ATOM    177  H   UNK A   1      -5.666  25.944  -3.776  1.00  0.00    +0.064 HD
ATOM    178  H   UNK A   1      -5.735  25.986  -5.542  1.00  0.00    +0.064 HD
ATOM    179  H   UNK A   1      -4.292  23.394  -4.804  1.00  0.00    +0.296 HD
ATOM    180  H   UNK A   1     -10.347  19.817  -0.403  1.00  0.00    +0.063 HD
ATOM    181  H   UNK A   1     -12.628  20.710  -0.492  1.00  0.00    +0.063 HD
ATOM    182  H   UNK A   1     -14.594  21.048  -3.717  1.00  0.00    +0.043 HD
ATOM    183  H   UNK A   1     -14.780  20.141  -2.211  1.00  0.00    +0.043 HD
ATOM    184  H   UNK A   1     -12.543  20.411  -4.772  1.00  0.00    +0.063 HD
ATOM    185  H   UNK A   1     -10.387  20.331  -5.815  1.00  0.00    +0.058 HD
ATOM    186  H   UNK A   1      -8.675  18.522  -1.345  1.00  0.00    +0.028 HD
ATOM    187  H   UNK A   1      -7.954  19.672  -2.468  1.00  0.00    +0.028 HD
ATOM    188  H   UNK A   1      -8.625  18.104  -3.038  1.00  0.00    +0.028 HD
ENDROOT
TORSDOF 0
ENDMDL
