REMARK  Generated by RDKit with Gasteiger charges
REMARK  --------------------------------------------------
ROOT
ATOM      1  N   UNK A   1      -9.729  -5.155   3.008  1.00  0.00    -0.131 N 
ATOM      2  C   UNK A   1      -8.974  -4.721   1.812  1.00  0.00    +0.121 C 
ATOM      3  C   UNK A   1      -8.116  -5.902   1.365  1.00  0.00    -0.037 C 
ATOM      4  C   UNK A   1      -9.977  -4.293   0.717  1.00  0.00    +0.262 C 
ATOM      5  O   UNK A   1     -11.178  -4.570   0.785  1.00  0.00    -0.271 OA
ATOM      6  N   UNK A   1      -9.394  -3.714  -0.341  1.00  0.00    -0.236 N 
ATOM      7  C   UNK A   1      -8.885  -2.323  -0.099  1.00  0.00    +0.141 C 
ATOM      8  C   UNK A   1      -7.447  -2.082  -0.659  1.00  0.00    +0.025 C 
ATOM      9  S   UNK A   1      -6.087  -2.891   0.297  1.00  0.00    -0.154 S 
ATOM     10  C   UNK A   1      -9.788  -1.330  -0.888  1.00  0.00    +0.249 C 
ATOM     11  O   UNK A   1      -9.929  -1.394  -2.113  1.00  0.00    -0.272 OA
ATOM     12  N   UNK A   1     -10.404  -0.334  -0.107  1.00  0.00    -0.329 N 
ATOM     13  C   UNK A   1     -11.281  -0.789   0.946  1.00  0.00    +0.021 C 
ATOM     14  C   UNK A   1     -12.689  -0.607   0.371  1.00  0.00    -0.033 C 
ATOM     15  C   UNK A   1     -12.511   0.244  -0.897  1.00  0.00    -0.022 C 
ATOM     16  C   UNK A   1     -11.071   0.784  -0.798  1.00  0.00    +0.113 C 
ATOM     17  C   UNK A   1     -11.137   2.139   0.006  1.00  0.00    +0.264 C 
ATOM     18  O   UNK A   1     -11.762   2.180   1.077  1.00  0.00    -0.271 OA
ATOM     19  N   UNK A   1     -10.637   3.249  -0.565  1.00  0.00    -0.234 N 
ATOM     20  C   UNK A   1      -9.424   3.138  -1.448  1.00  0.00    +0.157 C 
ATOM     21  C   UNK A   1      -9.844   3.366  -2.927  1.00  0.00    +0.075 C 
ATOM     22  O   UNK A   1     -10.997   4.242  -2.992  1.00  0.00    -0.394 OA
ATOM     23  C   UNK A   1      -8.322   4.211  -1.112  1.00  0.00    +0.269 C 
ATOM     24  O   UNK A   1      -8.607   5.330  -0.673  1.00  0.00    -0.270 OA
ATOM     25  N   UNK A   1      -7.101   3.738  -1.452  1.00  0.00    -0.236 N 
ATOM     26  C   UNK A   1      -5.886   4.393  -0.830  1.00  0.00    +0.138 C 
ATOM     27  C   UNK A   1      -5.876   4.267   0.724  1.00  0.00    +0.004 C 
ATOM     28  C   UNK A   1      -6.000   2.907   1.388  1.00  0.00    -0.045 C 
ATOM     29  C   UNK A   1      -4.862   2.185   1.766  1.00  0.00    -0.059 C 
ATOM     30  C   UNK A   1      -4.983   0.974   2.453  1.00  0.00    -0.062 C 
ATOM     31  C   UNK A   1      -6.244   0.452   2.749  1.00  0.00    -0.062 C 
ATOM     32  C   UNK A   1      -7.385   1.141   2.343  1.00  0.00    -0.062 C 
ATOM     33  C   UNK A   1      -7.261   2.363   1.676  1.00  0.00    -0.059 C 
ATOM     34  C   UNK A   1      -4.506   4.018  -1.576  1.00  0.00    +0.267 C 
ATOM     35  O   UNK A   1      -4.486   3.923  -2.812  1.00  0.00    -0.270 OA
ATOM     36  N   UNK A   1      -3.421   3.983  -0.750  1.00  0.00    -0.236 N 
ATOM     37  C   UNK A   1      -2.038   3.864  -1.388  1.00  0.00    +0.131 C 
ATOM     38  C   UNK A   1      -1.627   5.274  -1.865  1.00  0.00    -0.033 C 
ATOM     39  C   UNK A   1      -0.873   3.278  -0.427  1.00  0.00    +0.266 C 
ATOM     40  O   UNK A   1      -1.079   3.020   0.763  1.00  0.00    -0.270 OA
ATOM     41  N   UNK A   1       0.319   3.157  -1.087  1.00  0.00    -0.235 N 
ATOM     42  C   UNK A   1       1.425   2.295  -0.459  1.00  0.00    +0.143 C 
ATOM     43  C   UNK A   1       1.657   0.998  -1.314  1.00  0.00    +0.027 C 
ATOM     44  S   UNK A   1       0.311  -0.281  -1.473  1.00  0.00    -0.140 S 
ATOM     45  C   UNK A   1       2.873   3.041  -0.397  1.00  0.00    +0.267 C 
ATOM     46  O   UNK A   1       3.062   4.180  -0.835  1.00  0.00    -0.270 OA
ATOM     47  N   UNK A   1       3.803   2.290   0.267  1.00  0.00    -0.233 N 
ATOM     48  C   UNK A   1       5.310   2.632   0.127  1.00  0.00    +0.160 C 
ATOM     49  C   UNK A   1       5.786   3.392   1.413  1.00  0.00    +0.083 C 
ATOM     50  C   UNK A   1       6.854   4.445   1.144  1.00  0.00    -0.036 C 
ATOM     51  O   UNK A   1       4.686   4.089   2.055  1.00  0.00    -0.391 OA
ATOM     52  C   UNK A   1       6.202   1.292  -0.076  1.00  0.00    +0.269 C 
ATOM     53  O   UNK A   1       5.671   0.259  -0.488  1.00  0.00    -0.270 OA
ATOM     54  N   UNK A   1       7.549   1.462   0.102  1.00  0.00    -0.236 N 
ATOM     55  C   UNK A   1       8.359   0.219   0.481  1.00  0.00    +0.135 C 
ATOM     56  C   UNK A   1       8.374  -0.959  -0.589  1.00  0.00    -0.012 C 
ATOM     57  C   UNK A   1       7.631  -2.271  -0.148  1.00  0.00    +0.031 C 
ATOM     58  C   UNK A   1       7.737  -3.519  -1.101  1.00  0.00    +0.242 C 
ATOM     59  O   UNK A   1       8.607  -3.619  -1.973  1.00  0.00    -0.273 OA
ATOM     60  C   UNK A   1       9.868   0.518   1.018  1.00  0.00    +0.266 C 
ATOM     61  O   UNK A   1      10.251  -0.062   2.049  1.00  0.00    -0.270 OA
ATOM     62  N   UNK A   1       6.864  -4.501  -0.765  1.00  0.00    -0.238 N 
ATOM     63  C   UNK A   1       5.947  -4.892  -1.879  1.00  0.00    +0.131 C 
ATOM     64  C   UNK A   1       6.599  -5.964  -2.764  1.00  0.00    -0.033 C 
ATOM     65  C   UNK A   1       4.574  -5.485  -1.377  1.00  0.00    +0.266 C 
ATOM     66  O   UNK A   1       4.493  -6.559  -0.771  1.00  0.00    -0.270 OA
ATOM     67  N   UNK A   1      10.653   1.353   0.281  1.00  0.00    -0.236 N 
ATOM     68  C   UNK A   1      12.130   1.041   0.299  1.00  0.00    +0.136 C 
ATOM     69  C   UNK A   1      12.635   0.832  -1.174  1.00  0.00    -0.015 C 
ATOM     70  C   UNK A   1      11.816  -0.207  -1.950  1.00  0.00    -0.060 C 
ATOM     71  C   UNK A   1      14.110   0.398  -1.210  1.00  0.00    -0.060 C 
ATOM     72  C   UNK A   1      13.020   2.190   0.919  1.00  0.00    +0.266 C 
ATOM     73  O   UNK A   1      13.132   3.313   0.420  1.00  0.00    -0.270 OA
ATOM     74  N   UNK A   1       3.537  -4.756  -1.832  1.00  0.00    -0.233 N 
ATOM     75  C   UNK A   1       2.261  -4.861  -1.072  1.00  0.00    +0.160 C 
ATOM     76  C   UNK A   1       1.408  -3.541  -1.137  1.00  0.00    +0.028 C 
ATOM     77  S   UNK A   1       1.764  -2.398   0.254  1.00  0.00    -0.140 S 
ATOM     78  C   UNK A   1       1.428  -5.970  -1.688  1.00  0.00    +0.329 C 
ATOM     79  O   UNK A   1       0.993  -6.984  -1.146  1.00  0.00    -0.250 OA
ATOM     80  O   UNK A   1       1.079  -5.774  -2.986  1.00  0.00    -0.480 OA
ATOM     81  N   UNK A   1      13.766   1.738   1.954  1.00  0.00    -0.238 N 
ATOM     82  C   UNK A   1      14.754   2.715   2.448  1.00  0.00    +0.140 C 
ATOM     83  C   UNK A   1      15.371   2.119   3.701  1.00  0.00    +0.325 C 
ATOM     84  O   UNK A   1      16.362   2.554   4.283  1.00  0.00    -0.250 OA
ATOM     85  O   UNK A   1      14.685   1.032   4.140  1.00  0.00    -0.480 OA
ATOM     86  C   UNK A   1      -2.218  -2.408   2.704  1.00  0.00    -0.059 C 
ATOM     87  C   UNK A   1      -3.392  -2.406   1.955  1.00  0.00    -0.058 C 
ATOM     88  C   UNK A   1      -3.389  -1.994   0.620  1.00  0.00    -0.038 C 
ATOM     89  C   UNK A   1      -4.678  -1.770  -0.169  1.00  0.00    +0.019 C 
ATOM     90  C   UNK A   1      -2.145  -1.609   0.054  1.00  0.00    -0.053 C 
ATOM     91  C   UNK A   1      -0.923  -1.596   0.785  1.00  0.00    -0.022 C 
ATOM     92  C   UNK A   1       0.420  -1.081   0.168  1.00  0.00    +0.076 C 
ATOM     93  C   UNK A   1      -0.996  -1.970   2.155  1.00  0.00    -0.046 C 
ATOM     94  C   UNK A   1       0.187  -1.906   3.089  1.00  0.00    -0.039 C 
ATOM     95  H   UNK A   1      -8.349  -3.879   2.119  1.00  0.00    +0.060 HD
ATOM     96  H   UNK A   1      -8.732  -6.775   1.115  1.00  0.00    +0.025 HD
ATOM     97  H   UNK A   1      -7.414  -6.193   2.154  1.00  0.00    +0.025 HD
ATOM     98  H   UNK A   1      -7.528  -5.662   0.471  1.00  0.00    +0.025 HD
ATOM     99  H   UNK A   1      -8.882  -2.030   0.959  1.00  0.00    +0.067 HD
ATOM    100  H   UNK A   1      -7.368  -2.431  -1.695  1.00  0.00    +0.041 HD
ATOM    101  H   UNK A   1      -7.251  -1.002  -0.662  1.00  0.00    +0.041 HD
ATOM    102  H   UNK A   1     -11.128  -0.156   1.826  1.00  0.00    +0.049 HD
ATOM    103  H   UNK A   1     -11.115  -1.823   1.245  1.00  0.00    +0.049 HD
ATOM    104  H   UNK A   1     -13.351  -0.125   1.097  1.00  0.00    +0.029 HD
ATOM    105  H   UNK A   1     -13.137  -1.575   0.118  1.00  0.00    +0.029 HD
ATOM    106  H   UNK A   1     -12.593  -0.406  -1.776  1.00  0.00    +0.029 HD
ATOM    107  H   UNK A   1     -13.276   1.020  -0.986  1.00  0.00    +0.029 HD
ATOM    108  H   UNK A   1     -10.674   0.924  -1.806  1.00  0.00    +0.064 HD
ATOM    109  H   UNK A   1      -8.924   2.161  -1.356  1.00  0.00    +0.068 HD
ATOM    110  H   UNK A   1     -10.148   2.420  -3.391  1.00  0.00    +0.059 HD
ATOM    111  H   UNK A   1      -9.044   3.801  -3.538  1.00  0.00    +0.059 HD
ATOM    112  H   UNK A   1     -11.128   4.386  -2.020  1.00  0.00    +0.210 HD
ATOM    113  H   UNK A   1      -5.942   5.480  -1.017  1.00  0.00    +0.066 HD
ATOM    114  H   UNK A   1      -4.989   4.771   1.130  1.00  0.00    +0.034 HD
ATOM    115  H   UNK A   1      -6.707   4.878   1.114  1.00  0.00    +0.034 HD
ATOM    116  H   UNK A   1      -3.870   2.557   1.492  1.00  0.00    +0.063 HD
ATOM    117  H   UNK A   1      -4.077   0.431   2.705  1.00  0.00    +0.062 HD
ATOM    118  H   UNK A   1      -6.324  -0.493   3.274  1.00  0.00    +0.062 HD
ATOM    119  H   UNK A   1      -8.378   0.740   2.523  1.00  0.00    +0.062 HD
ATOM    120  H   UNK A   1      -8.151   2.895   1.347  1.00  0.00    +0.063 HD
ATOM    121  H   UNK A   1      -2.073   3.190  -2.258  1.00  0.00    +0.065 HD
ATOM    122  H   UNK A   1      -2.370   5.672  -2.561  1.00  0.00    +0.026 HD
ATOM    123  H   UNK A   1      -1.542   5.966  -1.017  1.00  0.00    +0.026 HD
ATOM    124  H   UNK A   1      -0.664   5.266  -2.384  1.00  0.00    +0.026 HD
ATOM    125  H   UNK A   1       1.186   2.021   0.577  1.00  0.00    +0.067 HD
ATOM    126  H   UNK A   1       1.877   1.305  -2.346  1.00  0.00    +0.041 HD
ATOM    127  H   UNK A   1       2.545   0.453  -0.976  1.00  0.00    +0.041 HD
ATOM    128  H   UNK A   1       5.487   3.241  -0.770  1.00  0.00    +0.069 HD
ATOM    129  H   UNK A   1       6.136   2.676   2.164  1.00  0.00    +0.063 HD
ATOM    130  H   UNK A   1       7.097   4.981   2.070  1.00  0.00    +0.026 HD
ATOM    131  H   UNK A   1       7.779   4.019   0.745  1.00  0.00    +0.026 HD
ATOM    132  H   UNK A   1       6.491   5.200   0.439  1.00  0.00    +0.026 HD
ATOM    133  H   UNK A   1       3.933   3.650   1.580  1.00  0.00    +0.211 HD
ATOM    134  H   UNK A   1       7.879  -0.193   1.387  1.00  0.00    +0.066 HD
ATOM    135  H   UNK A   1       9.409  -1.245  -0.791  1.00  0.00    +0.030 HD
ATOM    136  H   UNK A   1       7.959  -0.619  -1.544  1.00  0.00    +0.030 HD
ATOM    137  H   UNK A   1       8.038  -2.587   0.819  1.00  0.00    +0.037 HD
ATOM    138  H   UNK A   1       6.571  -2.043  -0.004  1.00  0.00    +0.037 HD
ATOM    139  H   UNK A   1       5.724  -4.026  -2.519  1.00  0.00    +0.065 HD
ATOM    140  H   UNK A   1       6.931  -6.826  -2.174  1.00  0.00    +0.026 HD
ATOM    141  H   UNK A   1       7.469  -5.569  -3.299  1.00  0.00    +0.026 HD
ATOM    142  H   UNK A   1       5.890  -6.330  -3.513  1.00  0.00    +0.026 HD
ATOM    143  H   UNK A   1      12.344   0.107   0.839  1.00  0.00    +0.066 HD
ATOM    144  H   UNK A   1      12.554   1.783  -1.722  1.00  0.00    +0.032 HD
ATOM    145  H   UNK A   1      12.244  -0.373  -2.943  1.00  0.00    +0.023 HD
ATOM    146  H   UNK A   1      10.790   0.133  -2.106  1.00  0.00    +0.023 HD
ATOM    147  H   UNK A   1      11.798  -1.166  -1.428  1.00  0.00    +0.023 HD
ATOM    148  H   UNK A   1      14.438   0.229  -2.241  1.00  0.00    +0.023 HD
ATOM    149  H   UNK A   1      14.263  -0.531  -0.653  1.00  0.00    +0.023 HD
ATOM    150  H   UNK A   1      14.771   1.160  -0.789  1.00  0.00    +0.023 HD
ATOM    151  H   UNK A   1       2.409  -5.138  -0.019  1.00  0.00    +0.068 HD
ATOM    152  H   UNK A   1       0.341  -3.781  -1.083  1.00  0.00    +0.041 HD
ATOM    153  H   UNK A   1       1.593  -3.014  -2.079  1.00  0.00    +0.041 HD
ATOM    154  H   UNK A   1       0.619  -6.606  -3.163  1.00  0.00    +0.296 HD
ATOM    155  H   UNK A   1      15.560   2.883   1.726  1.00  0.00    +0.064 HD
ATOM    156  H   UNK A   1      14.306   3.673   2.735  1.00  0.00    +0.064 HD
ATOM    157  H   UNK A   1      13.960   0.957   3.436  1.00  0.00    +0.296 HD
ATOM    158  H   UNK A   1      -2.264  -2.700   3.749  1.00  0.00    +0.063 HD
ATOM    159  H   UNK A   1      -4.322  -2.669   2.449  1.00  0.00    +0.063 HD
ATOM    160  H   UNK A   1      -4.488  -1.922  -1.239  1.00  0.00    +0.043 HD
ATOM    161  H   UNK A   1      -4.994  -0.731  -0.008  1.00  0.00    +0.043 HD
ATOM    162  H   UNK A   1      -2.152  -1.234  -0.970  1.00  0.00    +0.063 HD
ATOM    163  H   UNK A   1       0.750  -0.285   0.844  1.00  0.00    +0.058 HD
ATOM    164  H   UNK A   1       0.826  -1.041   2.891  1.00  0.00    +0.028 HD
ATOM    165  H   UNK A   1       0.770  -2.827   3.031  1.00  0.00    +0.028 HD
ATOM    166  H   UNK A   1      -0.149  -1.792   4.126  1.00  0.00    +0.028 HD
ENDROOT
TORSDOF 0