REMARK  Generated by RDKit with Gasteiger charges
REMARK  --------------------------------------------------
ROOT
ATOM      1  N   UNK A   1       6.311  -3.500  -5.785  1.00  0.00    -0.131 N 
ATOM      2  C   UNK A   1       5.854  -2.222  -5.196  1.00  0.00    +0.121 C 
ATOM      3  C   UNK A   1       6.872  -1.156  -5.574  1.00  0.00    -0.037 C 
ATOM      4  C   UNK A   1       4.468  -1.912  -5.787  1.00  0.00    +0.262 C 
ATOM      5  O   UNK A   1       4.320  -1.665  -6.989  1.00  0.00    -0.271 OA
ATOM      6  N   UNK A   1       3.484  -2.100  -4.895  1.00  0.00    -0.236 N 
ATOM      7  C   UNK A   1       3.136  -0.879  -4.083  1.00  0.00    +0.143 C 
ATOM      8  C   UNK A   1       1.776  -1.040  -3.340  1.00  0.00    +0.025 C 
ATOM      9  S   UNK A   1       0.246  -0.953  -4.401  1.00  0.00    -0.154 S 
ATOM     10  C   UNK A   1       4.232  -0.369  -3.066  1.00  0.00    +0.267 C 
ATOM     11  O   UNK A   1       4.990   0.534  -3.447  1.00  0.00    -0.270 OA
ATOM     12  N   UNK A   1       4.250  -0.992  -1.860  1.00  0.00    -0.236 N 
ATOM     13  C   UNK A   1       4.598  -0.107  -0.678  1.00  0.00    +0.135 C 
ATOM     14  C   UNK A   1       3.270   0.414   0.109  1.00  0.00    -0.012 C 
ATOM     15  C   UNK A   1       2.012  -0.485   0.394  1.00  0.00    +0.031 C 
ATOM     16  C   UNK A   1       0.751   0.184   1.163  1.00  0.00    +0.242 C 
ATOM     17  O   UNK A   1       0.894   0.602   2.317  1.00  0.00    -0.273 OA
ATOM     18  C   UNK A   1       5.737  -0.743   0.286  1.00  0.00    +0.266 C 
ATOM     19  O   UNK A   1       5.428  -1.441   1.256  1.00  0.00    -0.270 OA
ATOM     20  N   UNK A   1      -0.384   0.139   0.427  1.00  0.00    -0.238 N 
ATOM     21  C   UNK A   1      -1.770   0.492   0.982  1.00  0.00    +0.135 C 
ATOM     22  C   UNK A   1      -2.370  -0.622   1.945  1.00  0.00    -0.012 C 
ATOM     23  C   UNK A   1      -3.134  -1.780   1.207  1.00  0.00    +0.031 C 
ATOM     24  C   UNK A   1      -4.043  -2.719   2.079  1.00  0.00    +0.242 C 
ATOM     25  O   UNK A   1      -3.850  -2.881   3.285  1.00  0.00    -0.273 OA
ATOM     26  C   UNK A   1      -2.116   2.030   1.314  1.00  0.00    +0.266 C 
ATOM     27  O   UNK A   1      -1.350   2.956   1.036  1.00  0.00    -0.270 OA
ATOM     28  N   UNK A   1       7.023  -0.405  -0.070  1.00  0.00    -0.235 N 
ATOM     29  C   UNK A   1       8.160  -1.010   0.756  1.00  0.00    +0.143 C 
ATOM     30  C   UNK A   1       8.207  -2.560   0.664  1.00  0.00    +0.058 C 
ATOM     31  C   UNK A   1       8.168  -3.245  -0.703  1.00  0.00    +0.220 C 
ATOM     32  O   UNK A   1       8.471  -4.440  -0.844  1.00  0.00    -0.275 OA
ATOM     33  N   UNK A   1       7.701  -2.521  -1.757  1.00  0.00    -0.370 N 
ATOM     34  C   UNK A   1       9.634  -0.509   0.412  1.00  0.00    +0.267 C 
ATOM     35  O   UNK A   1      10.025  -0.379  -0.752  1.00  0.00    -0.270 OA
ATOM     36  N   UNK A   1      -4.982  -3.345   1.328  1.00  0.00    -0.238 N 
ATOM     37  C   UNK A   1      -6.305  -3.580   1.991  1.00  0.00    +0.134 C 
ATOM     38  C   UNK A   1      -7.253  -2.369   1.802  1.00  0.00    -0.020 C 
ATOM     39  C   UNK A   1      -6.800  -1.013   2.355  1.00  0.00    -0.033 C 
ATOM     40  C   UNK A   1      -6.573  -1.003   3.861  1.00  0.00    +0.018 C 
ATOM     41  N   UNK A   1      -6.581   0.363   4.382  1.00  0.00    -0.357 N 
ATOM     42  C   UNK A   1      -7.670   1.132   4.605  1.00  0.00    +0.185 C 
ATOM     43  N   UNK A   1      -8.877   0.718   4.827  1.00  0.00    -0.270 N 
ATOM     44  N   UNK A   1      -7.385   2.448   4.651  1.00  0.00    -0.370 N 
ATOM     45  C   UNK A   1      -6.944  -4.942   1.480  1.00  0.00    +0.266 C 
ATOM     46  O   UNK A   1      -6.465  -6.032   1.821  1.00  0.00    -0.270 OA
ATOM     47  N   UNK A   1      -3.357   2.244   1.846  1.00  0.00    -0.235 N 
ATOM     48  C   UNK A   1      -4.347   2.893   0.887  1.00  0.00    +0.143 C 
ATOM     49  C   UNK A   1      -5.210   1.754   0.269  1.00  0.00    +0.027 C 
ATOM     50  S   UNK A   1      -6.088   2.114  -1.322  1.00  0.00    -0.140 S 
ATOM     51  C   UNK A   1      -5.260   3.912   1.700  1.00  0.00    +0.267 C 
ATOM     52  O   UNK A   1      -6.078   3.550   2.547  1.00  0.00    -0.270 OA
ATOM     53  N   UNK A   1      10.428  -0.380   1.518  1.00  0.00    -0.233 N 
ATOM     54  C   UNK A   1      11.836   0.109   1.244  1.00  0.00    +0.160 C 
ATOM     55  C   UNK A   1      11.885   1.663   1.325  1.00  0.00    +0.083 C 
ATOM     56  C   UNK A   1      11.362   2.361   0.076  1.00  0.00    -0.036 C 
ATOM     57  O   UNK A   1      11.107   2.122   2.444  1.00  0.00    -0.391 OA
ATOM     58  C   UNK A   1      12.893  -0.455   2.257  1.00  0.00    +0.269 C 
ATOM     59  O   UNK A   1      12.641  -0.877   3.387  1.00  0.00    -0.270 OA
ATOM     60  N   UNK A   1      -8.107  -4.863   0.793  1.00  0.00    -0.236 N 
ATOM     61  C   UNK A   1      -7.923  -4.783  -0.684  1.00  0.00    +0.135 C 
ATOM     62  C   UNK A   1      -7.399  -6.127  -1.261  1.00  0.00    -0.013 C 
ATOM     63  C   UNK A   1      -8.296  -7.343  -0.970  1.00  0.00    +0.029 C 
ATOM     64  C   UNK A   1      -7.494  -8.538  -0.503  1.00  0.00    +0.217 C 
ATOM     65  O   UNK A   1      -7.406  -9.597  -1.132  1.00  0.00    -0.275 OA
ATOM     66  N   UNK A   1      -6.908  -8.398   0.720  1.00  0.00    -0.370 N 
ATOM     67  C   UNK A   1      -9.218  -4.378  -1.448  1.00  0.00    +0.266 C 
ATOM     68  O   UNK A   1      -9.848  -5.159  -2.165  1.00  0.00    -0.270 OA
ATOM     69  N   UNK A   1      -4.981   5.194   1.387  1.00  0.00    -0.234 N 
ATOM     70  C   UNK A   1      -5.389   6.283   2.314  1.00  0.00    +0.151 C 
ATOM     71  C   UNK A   1      -6.863   6.773   2.132  1.00  0.00    -0.011 C 
ATOM     72  C   UNK A   1      -7.082   8.237   2.610  1.00  0.00    +0.031 C 
ATOM     73  C   UNK A   1      -8.407   8.917   2.203  1.00  0.00    +0.241 C 
ATOM     74  O   UNK A   1      -9.429   8.314   1.887  1.00  0.00    -0.273 OA
ATOM     75  C   UNK A   1      -4.974   6.089   3.775  1.00  0.00    +0.328 C 
ATOM     76  O   UNK A   1      -5.428   6.729   4.724  1.00  0.00    -0.250 OA
ATOM     77  O   UNK A   1      -3.901   5.279   3.938  1.00  0.00    -0.480 OA
ATOM     78  N   UNK A   1      14.161  -0.335   1.795  1.00  0.00    -0.234 N 
ATOM     79  C   UNK A   1      15.139  -1.261   2.405  1.00  0.00    +0.153 C 
ATOM     80  C   UNK A   1      16.261  -1.648   1.385  1.00  0.00    -0.011 C 
ATOM     81  C   UNK A   1      17.084  -2.827   1.948  1.00  0.00    -0.060 C 
ATOM     82  C   UNK A   1      15.739  -2.082  -0.011  1.00  0.00    -0.051 C 
ATOM     83  C   UNK A   1      15.544  -0.933  -0.995  1.00  0.00    -0.065 C 
ATOM     84  C   UNK A   1      15.741  -0.590   3.656  1.00  0.00    +0.328 C 
ATOM     85  O   UNK A   1      16.937  -0.397   3.875  1.00  0.00    -0.250 OA
ATOM     86  O   UNK A   1      14.813  -0.285   4.600  1.00  0.00    -0.480 OA
ATOM     87  N   UNK A   1      -9.653  -3.125  -1.256  1.00  0.00    -0.233 N 
ATOM     88  C   UNK A   1      -9.301  -2.088  -2.287  1.00  0.00    +0.160 C 
ATOM     89  C   UNK A   1      -7.789  -1.728  -2.347  1.00  0.00    +0.028 C 
ATOM     90  S   UNK A   1      -7.523   0.002  -2.968  1.00  0.00    -0.140 S 
ATOM     91  C   UNK A   1      -9.951  -2.376  -3.653  1.00  0.00    +0.329 C 
ATOM     92  O   UNK A   1      -9.723  -1.827  -4.724  1.00  0.00    -0.250 OA
ATOM     93  O   UNK A   1     -10.991  -3.256  -3.553  1.00  0.00    -0.480 OA
ATOM     94  N   UNK A   1      -8.352  10.253   2.346  1.00  0.00    -0.240 N 
ATOM     95  C   UNK A   1      -9.247  11.001   1.451  1.00  0.00    +0.140 C 
ATOM     96  C   UNK A   1     -10.654  11.199   1.978  1.00  0.00    +0.325 C 
ATOM     97  O   UNK A   1     -11.300  12.240   1.850  1.00  0.00    -0.250 OA
ATOM     98  O   UNK A   1     -11.207  10.094   2.529  1.00  0.00    -0.480 OA
ATOM     99  C   UNK A   1      -3.608   1.365  -5.242  1.00  0.00    -0.059 C 
ATOM    100  C   UNK A   1      -2.394   0.807  -4.842  1.00  0.00    -0.058 C 
ATOM    101  C   UNK A   1      -2.294   0.101  -3.643  1.00  0.00    -0.038 C 
ATOM    102  C   UNK A   1      -0.945  -0.374  -3.097  1.00  0.00    +0.019 C 
ATOM    103  C   UNK A   1      -3.460  -0.011  -2.849  1.00  0.00    -0.053 C 
ATOM    104  C   UNK A   1      -4.712   0.565  -3.216  1.00  0.00    -0.022 C 
ATOM    105  C   UNK A   1      -5.862   0.461  -2.185  1.00  0.00    +0.076 C 
ATOM    106  C   UNK A   1      -4.762   1.287  -4.437  1.00  0.00    -0.046 C 
ATOM    107  C   UNK A   1      -5.982   2.004  -4.947  1.00  0.00    -0.039 C 
ATOM    108  H   UNK A   1       5.810  -2.343  -4.110  1.00  0.00    +0.060 HD
ATOM    109  H   UNK A   1       7.022  -1.098  -6.660  1.00  0.00    +0.025 HD
ATOM    110  H   UNK A   1       6.555  -0.163  -5.247  1.00  0.00    +0.025 HD
ATOM    111  H   UNK A   1       7.844  -1.365  -5.112  1.00  0.00    +0.025 HD
ATOM    112  H   UNK A   1       2.996  -0.027  -4.767  1.00  0.00    +0.067 HD
ATOM    113  H   UNK A   1       1.683  -0.222  -2.619  1.00  0.00    +0.041 HD
ATOM    114  H   UNK A   1       1.737  -1.988  -2.794  1.00  0.00    +0.041 HD
ATOM    115  H   UNK A   1       5.058   0.834  -1.017  1.00  0.00    +0.066 HD
ATOM    116  H   UNK A   1       2.897   1.275  -0.467  1.00  0.00    +0.030 HD
ATOM    117  H   UNK A   1       3.604   0.827   1.070  1.00  0.00    +0.030 HD
ATOM    118  H   UNK A   1       1.653  -0.923  -0.540  1.00  0.00    +0.037 HD
ATOM    119  H   UNK A   1       2.325  -1.332   1.019  1.00  0.00    +0.037 HD
ATOM    120  H   UNK A   1      -2.389   0.391   0.077  1.00  0.00    +0.066 HD
ATOM    121  H   UNK A   1      -3.070  -0.168   2.654  1.00  0.00    +0.030 HD
ATOM    122  H   UNK A   1      -1.571  -1.064   2.553  1.00  0.00    +0.030 HD
ATOM    123  H   UNK A   1      -3.778  -1.330   0.440  1.00  0.00    +0.037 HD
ATOM    124  H   UNK A   1      -2.398  -2.414   0.696  1.00  0.00    +0.037 HD
ATOM    125  H   UNK A   1       7.991  -0.746   1.811  1.00  0.00    +0.066 HD
ATOM    126  H   UNK A   1       9.114  -2.925   1.161  1.00  0.00    +0.039 HD
ATOM    127  H   UNK A   1       7.364  -2.981   1.226  1.00  0.00    +0.039 HD
ATOM    128  H   UNK A   1       7.086  -3.011  -2.384  1.00  0.00    +0.159 HD
ATOM    129  H   UNK A   1       7.268  -1.624  -1.461  1.00  0.00    +0.159 HD
ATOM    130  H   UNK A   1      -6.193  -3.746   3.073  1.00  0.00    +0.066 HD
ATOM    131  H   UNK A   1      -8.226  -2.604   2.254  1.00  0.00    +0.029 HD
ATOM    132  H   UNK A   1      -7.442  -2.226   0.735  1.00  0.00    +0.029 HD
ATOM    133  H   UNK A   1      -7.577  -0.281   2.093  1.00  0.00    +0.029 HD
ATOM    134  H   UNK A   1      -5.895  -0.678   1.844  1.00  0.00    +0.029 HD
ATOM    135  H   UNK A   1      -7.327  -1.609   4.375  1.00  0.00    +0.049 HD
ATOM    136  H   UNK A   1      -5.609  -1.444   4.114  1.00  0.00    +0.049 HD
ATOM    137  H   UNK A   1      -5.782   0.877   3.993  1.00  0.00    +0.163 HD
ATOM    138  H   UNK A   1      -8.822  -0.292   4.678  1.00  0.00    +0.191 HD
ATOM    139  H   UNK A   1      -8.203   3.004   4.455  1.00  0.00    +0.159 HD
ATOM    140  H   UNK A   1      -6.681   2.730   3.942  1.00  0.00    +0.159 HD
ATOM    141  H   UNK A   1      -3.832   3.436   0.083  1.00  0.00    +0.067 HD
ATOM    142  H   UNK A   1      -5.982   1.439   0.976  1.00  0.00    +0.041 HD
ATOM    143  H   UNK A   1      -4.579   0.884   0.082  1.00  0.00    +0.041 HD
ATOM    144  H   UNK A   1      12.186  -0.221   0.254  1.00  0.00    +0.069 HD
ATOM    145  H   UNK A   1      12.909   2.012   1.487  1.00  0.00    +0.063 HD
ATOM    146  H   UNK A   1      10.281   2.232  -0.039  1.00  0.00    +0.026 HD
ATOM    147  H   UNK A   1      11.874   2.010  -0.822  1.00  0.00    +0.026 HD
ATOM    148  H   UNK A   1      11.527   3.439   0.163  1.00  0.00    +0.026 HD
ATOM    149  H   UNK A   1      10.411   1.413   2.458  1.00  0.00    +0.211 HD
ATOM    150  H   UNK A   1      -7.167  -4.032  -0.943  1.00  0.00    +0.066 HD
ATOM    151  H   UNK A   1      -7.305  -6.027  -2.351  1.00  0.00    +0.030 HD
ATOM    152  H   UNK A   1      -6.375  -6.294  -0.904  1.00  0.00    +0.030 HD
ATOM    153  H   UNK A   1      -8.826  -7.640  -1.883  1.00  0.00    +0.037 HD
ATOM    154  H   UNK A   1      -9.062  -7.138  -0.213  1.00  0.00    +0.037 HD
ATOM    155  H   UNK A   1      -6.090  -8.948   0.902  1.00  0.00    +0.159 HD
ATOM    156  H   UNK A   1      -6.809  -7.417   1.064  1.00  0.00    +0.159 HD
ATOM    157  H   UNK A   1      -4.768   7.141   2.005  1.00  0.00    +0.068 HD
ATOM    158  H   UNK A   1      -7.559   6.109   2.656  1.00  0.00    +0.030 HD
ATOM    159  H   UNK A   1      -7.134   6.723   1.068  1.00  0.00    +0.030 HD
ATOM    160  H   UNK A   1      -7.038   8.279   3.704  1.00  0.00    +0.037 HD
ATOM    161  H   UNK A   1      -6.259   8.852   2.224  1.00  0.00    +0.037 HD
ATOM    162  H   UNK A   1      -3.766   4.787   3.077  1.00  0.00    +0.296 HD
ATOM    163  H   UNK A   1      14.678  -2.203   2.740  1.00  0.00    +0.068 HD
ATOM    164  H   UNK A   1      16.949  -0.801   1.257  1.00  0.00    +0.033 HD
ATOM    165  H   UNK A   1      17.517  -2.599   2.927  1.00  0.00    +0.023 HD
ATOM    166  H   UNK A   1      17.921  -3.070   1.281  1.00  0.00    +0.023 HD
ATOM    167  H   UNK A   1      16.466  -3.725   2.054  1.00  0.00    +0.023 HD
ATOM    168  H   UNK A   1      14.805  -2.650   0.084  1.00  0.00    +0.027 HD
ATOM    169  H   UNK A   1      16.466  -2.762  -0.476  1.00  0.00    +0.027 HD
ATOM    170  H   UNK A   1      15.340  -1.334  -1.994  1.00  0.00    +0.023 HD
ATOM    171  H   UNK A   1      16.446  -0.316  -1.061  1.00  0.00    +0.023 HD
ATOM    172  H   UNK A   1      14.703  -0.290  -0.726  1.00  0.00    +0.023 HD
ATOM    173  H   UNK A   1      13.918  -0.438   4.164  1.00  0.00    +0.296 HD
ATOM    174  H   UNK A   1      -9.825  -1.181  -1.944  1.00  0.00    +0.068 HD
ATOM    175  H   UNK A   1      -7.350  -1.775  -1.350  1.00  0.00    +0.041 HD
ATOM    176  H   UNK A   1      -7.249  -2.416  -3.005  1.00  0.00    +0.041 HD
ATOM    177  H   UNK A   1     -10.813  -3.669  -2.659  1.00  0.00    +0.296 HD
ATOM    178  H   UNK A   1      -9.324  10.566   0.446  1.00  0.00    +0.064 HD
ATOM    179  H   UNK A   1      -8.829  12.007   1.312  1.00  0.00    +0.064 HD
ATOM    180  H   UNK A   1     -10.517   9.370   2.437  1.00  0.00    +0.296 HD
ATOM    181  H   UNK A   1      -3.632   1.921  -6.173  1.00  0.00    +0.063 HD
ATOM    182  H   UNK A   1      -1.508   0.968  -5.450  1.00  0.00    +0.063 HD
ATOM    183  H   UNK A   1      -0.496   0.471  -2.566  1.00  0.00    +0.043 HD
ATOM    184  H   UNK A   1      -1.092  -1.207  -2.399  1.00  0.00    +0.043 HD
ATOM    185  H   UNK A   1      -3.369  -0.505  -1.877  1.00  0.00    +0.063 HD
ATOM    186  H   UNK A   1      -5.647  -0.308  -1.437  1.00  0.00    +0.058 HD
ATOM    187  H   UNK A   1      -6.512   2.536  -4.156  1.00  0.00    +0.028 HD
ATOM    188  H   UNK A   1      -6.653   1.301  -5.449  1.00  0.00    +0.028 HD
ATOM    189  H   UNK A   1      -5.708   2.771  -5.683  1.00  0.00    +0.028 HD
ENDROOT
TORSDOF 0