REMARK  Generated by RDKit with Gasteiger charges
REMARK  --------------------------------------------------
ROOT
ATOM      1  N   UNK A   1     -11.348  -7.183   1.013  1.00  0.00    -0.131 N 
ATOM      2  C   UNK A   1     -10.145  -6.319   0.939  1.00  0.00    +0.121 C 
ATOM      3  C   UNK A   1      -9.484  -6.367   2.312  1.00  0.00    -0.037 C 
ATOM      4  C   UNK A   1      -9.197  -6.892  -0.137  1.00  0.00    +0.262 C 
ATOM      5  O   UNK A   1      -9.198  -8.114  -0.361  1.00  0.00    -0.271 OA
ATOM      6  N   UNK A   1      -8.351  -6.048  -0.754  1.00  0.00    -0.236 N 
ATOM      7  C   UNK A   1      -8.337  -4.577  -0.426  1.00  0.00    +0.143 C 
ATOM      8  C   UNK A   1      -7.014  -3.886  -0.916  1.00  0.00    +0.025 C 
ATOM      9  S   UNK A   1      -5.434  -4.429  -0.070  1.00  0.00    -0.154 S 
ATOM     10  C   UNK A   1      -9.510  -3.813  -1.144  1.00  0.00    +0.267 C 
ATOM     11  O   UNK A   1      -9.900  -4.136  -2.272  1.00  0.00    -0.270 OA
ATOM     12  N   UNK A   1     -10.004  -2.812  -0.374  1.00  0.00    -0.236 N 
ATOM     13  C   UNK A   1     -10.353  -1.559  -1.130  1.00  0.00    +0.134 C 
ATOM     14  C   UNK A   1     -11.727  -1.730  -1.849  1.00  0.00    -0.019 C 
ATOM     15  C   UNK A   1     -11.806  -1.029  -3.224  1.00  0.00    -0.045 C 
ATOM     16  C   UNK A   1     -13.123  -1.401  -3.916  1.00  0.00    -0.063 C 
ATOM     17  C   UNK A   1     -11.688   0.492  -3.134  1.00  0.00    -0.063 C 
ATOM     18  C   UNK A   1     -10.440  -0.290  -0.173  1.00  0.00    +0.266 C 
ATOM     19  O   UNK A   1     -11.481  -0.037   0.450  1.00  0.00    -0.270 OA
ATOM     20  N   UNK A   1      -9.323   0.469  -0.234  1.00  0.00    -0.235 N 
ATOM     21  C   UNK A   1      -9.402   1.859   0.314  1.00  0.00    +0.143 C 
ATOM     22  C   UNK A   1      -9.325   1.916   1.852  1.00  0.00    +0.058 C 
ATOM     23  C   UNK A   1      -8.101   1.450   2.638  1.00  0.00    +0.220 C 
ATOM     24  O   UNK A   1      -8.145   1.360   3.876  1.00  0.00    -0.275 OA
ATOM     25  N   UNK A   1      -6.955   1.205   1.959  1.00  0.00    -0.370 N 
ATOM     26  C   UNK A   1      -8.464   2.860  -0.484  1.00  0.00    +0.267 C 
ATOM     27  O   UNK A   1      -8.701   3.103  -1.673  1.00  0.00    -0.270 OA
ATOM     28  N   UNK A   1      -7.525   3.486   0.267  1.00  0.00    -0.235 N 
ATOM     29  C   UNK A   1      -6.220   3.800  -0.438  1.00  0.00    +0.143 C 
ATOM     30  C   UNK A   1      -6.368   4.827  -1.603  1.00  0.00    +0.058 C 
ATOM     31  C   UNK A   1      -7.223   6.080  -1.359  1.00  0.00    +0.220 C 
ATOM     32  O   UNK A   1      -7.499   6.899  -2.244  1.00  0.00    -0.275 OA
ATOM     33  N   UNK A   1      -7.633   6.278  -0.062  1.00  0.00    -0.370 N 
ATOM     34  C   UNK A   1      -5.131   4.401   0.540  1.00  0.00    +0.267 C 
ATOM     35  O   UNK A   1      -5.252   5.574   0.927  1.00  0.00    -0.270 OA
ATOM     36  N   UNK A   1      -4.121   3.547   0.821  1.00  0.00    -0.236 N 
ATOM     37  C   UNK A   1      -2.736   4.147   1.043  1.00  0.00    +0.138 C 
ATOM     38  C   UNK A   1      -2.669   5.020   2.329  1.00  0.00    +0.004 C 
ATOM     39  C   UNK A   1      -1.968   6.358   2.134  1.00  0.00    -0.045 C 
ATOM     40  C   UNK A   1      -0.573   6.421   2.053  1.00  0.00    -0.059 C 
ATOM     41  C   UNK A   1       0.076   7.637   1.830  1.00  0.00    -0.062 C 
ATOM     42  C   UNK A   1      -0.667   8.809   1.697  1.00  0.00    -0.062 C 
ATOM     43  C   UNK A   1      -2.060   8.760   1.769  1.00  0.00    -0.062 C 
ATOM     44  C   UNK A   1      -2.706   7.539   1.982  1.00  0.00    -0.059 C 
ATOM     45  C   UNK A   1      -1.628   3.011   1.250  1.00  0.00    +0.267 C 
ATOM     46  O   UNK A   1      -1.802   2.093   2.056  1.00  0.00    -0.270 OA
ATOM     47  N   UNK A   1      -0.483   3.262   0.560  1.00  0.00    -0.235 N 
ATOM     48  C   UNK A   1       0.686   2.306   0.820  1.00  0.00    +0.143 C 
ATOM     49  C   UNK A   1       0.444   0.945   0.084  1.00  0.00    +0.027 C 
ATOM     50  S   UNK A   1       1.540  -0.467   0.611  1.00  0.00    -0.140 S 
ATOM     51  C   UNK A   1       2.011   3.008   0.278  1.00  0.00    +0.267 C 
ATOM     52  O   UNK A   1       2.070   3.517  -0.845  1.00  0.00    -0.270 OA
ATOM     53  N   UNK A   1       3.037   2.993   1.169  1.00  0.00    -0.233 N 
ATOM     54  C   UNK A   1       4.366   3.485   0.637  1.00  0.00    +0.158 C 
ATOM     55  C   UNK A   1       4.568   4.978   1.032  1.00  0.00    +0.083 C 
ATOM     56  C   UNK A   1       5.860   5.577   0.477  1.00  0.00    -0.036 C 
ATOM     57  O   UNK A   1       3.506   5.817   0.534  1.00  0.00    -0.391 OA
ATOM     58  C   UNK A   1       5.586   2.675   1.223  1.00  0.00    +0.250 C 
ATOM     59  O   UNK A   1       6.073   2.922   2.332  1.00  0.00    -0.272 OA
ATOM     60  N   UNK A   1       6.138   1.730   0.324  1.00  0.00    -0.329 N 
ATOM     61  C   UNK A   1       5.187   0.678  -0.019  1.00  0.00    +0.021 C 
ATOM     62  C   UNK A   1       5.574  -0.510   0.880  1.00  0.00    -0.033 C 
ATOM     63  C   UNK A   1       6.925  -0.138   1.499  1.00  0.00    -0.022 C 
ATOM     64  C   UNK A   1       7.401   0.993   0.595  1.00  0.00    +0.113 C 
ATOM     65  C   UNK A   1       8.811   1.627   0.913  1.00  0.00    +0.264 C 
ATOM     66  O   UNK A   1       9.030   2.842   0.879  1.00  0.00    -0.271 OA
ATOM     67  N   UNK A   1       9.768   0.707   1.174  1.00  0.00    -0.236 N 
ATOM     68  C   UNK A   1      10.276  -0.006  -0.057  1.00  0.00    +0.138 C 
ATOM     69  C   UNK A   1      11.681   0.532  -0.441  1.00  0.00    +0.004 C 
ATOM     70  C   UNK A   1      12.840   0.250   0.499  1.00  0.00    -0.045 C 
ATOM     71  C   UNK A   1      13.572  -0.937   0.375  1.00  0.00    -0.059 C 
ATOM     72  C   UNK A   1      14.632  -1.210   1.239  1.00  0.00    -0.062 C 
ATOM     73  C   UNK A   1      14.965  -0.304   2.247  1.00  0.00    -0.062 C 
ATOM     74  C   UNK A   1      14.228   0.871   2.393  1.00  0.00    -0.062 C 
ATOM     75  C   UNK A   1      13.171   1.145   1.522  1.00  0.00    -0.059 C 
ATOM     76  C   UNK A   1      10.279  -1.577   0.032  1.00  0.00    +0.267 C 
ATOM     77  O   UNK A   1      10.329  -2.180   1.107  1.00  0.00    -0.270 OA
ATOM     78  N   UNK A   1      10.332  -2.127  -1.203  1.00  0.00    -0.235 N 
ATOM     79  C   UNK A   1       9.535  -3.412  -1.404  1.00  0.00    +0.143 C 
ATOM     80  C   UNK A   1       8.102  -3.066  -1.975  1.00  0.00    +0.060 C 
ATOM     81  C   UNK A   1       6.875  -3.993  -1.645  1.00  0.00    +0.244 C 
ATOM     82  O   UNK A   1       6.991  -5.147  -1.236  1.00  0.00    -0.273 OA
ATOM     83  C   UNK A   1      10.408  -4.211  -2.463  1.00  0.00    +0.267 C 
ATOM     84  O   UNK A   1      10.535  -3.890  -3.650  1.00  0.00    -0.270 OA
ATOM     85  N   UNK A   1       5.706  -3.372  -1.947  1.00  0.00    -0.235 N 
ATOM     86  C   UNK A   1       4.487  -3.914  -1.253  1.00  0.00    +0.160 C 
ATOM     87  C   UNK A   1       3.309  -2.869  -1.245  1.00  0.00    +0.028 C 
ATOM     88  S   UNK A   1       1.843  -3.438  -0.241  1.00  0.00    -0.140 S 
ATOM     89  C   UNK A   1       4.037  -5.192  -1.934  1.00  0.00    +0.329 C 
ATOM     90  O   UNK A   1       3.871  -6.297  -1.425  1.00  0.00    -0.250 OA
ATOM     91  O   UNK A   1       3.751  -5.068  -3.255  1.00  0.00    -0.480 OA
ATOM     92  N   UNK A   1      11.011  -5.309  -1.962  1.00  0.00    -0.238 N 
ATOM     93  C   UNK A   1      12.403  -5.486  -2.395  1.00  0.00    +0.140 C 
ATOM     94  C   UNK A   1      12.578  -6.252  -3.688  1.00  0.00    +0.325 C 
ATOM     95  O   UNK A   1      13.505  -7.037  -3.906  1.00  0.00    -0.250 OA
ATOM     96  O   UNK A   1      11.680  -5.944  -4.652  1.00  0.00    -0.480 OA
ATOM     97  C   UNK A   1      -1.919  -3.022   2.530  1.00  0.00    -0.059 C 
ATOM     98  C   UNK A   1      -3.079  -3.140   1.767  1.00  0.00    -0.058 C 
ATOM     99  C   UNK A   1      -3.056  -2.912   0.390  1.00  0.00    -0.038 C 
ATOM    100  C   UNK A   1      -4.363  -2.945  -0.410  1.00  0.00    +0.019 C 
ATOM    101  C   UNK A   1      -1.820  -2.506  -0.185  1.00  0.00    -0.053 C 
ATOM    102  C   UNK A   1      -0.614  -2.359   0.573  1.00  0.00    -0.022 C 
ATOM    103  C   UNK A   1       0.692  -1.910  -0.153  1.00  0.00    +0.076 C 
ATOM    104  C   UNK A   1      -0.683  -2.656   1.960  1.00  0.00    -0.046 C 
ATOM    105  C   UNK A   1       0.472  -2.501   2.915  1.00  0.00    -0.039 C 
ATOM    106  H   UNK A   1     -10.504  -5.319   0.707  1.00  0.00    +0.060 HD
ATOM    107  H   UNK A   1      -8.550  -5.799   2.335  1.00  0.00    +0.025 HD
ATOM    108  H   UNK A   1      -9.235  -7.396   2.601  1.00  0.00    +0.025 HD
ATOM    109  H   UNK A   1     -10.148  -5.955   3.082  1.00  0.00    +0.025 HD
ATOM    110  H   UNK A   1      -8.395  -4.395   0.653  1.00  0.00    +0.067 HD
ATOM    111  H   UNK A   1      -7.101  -2.804  -0.769  1.00  0.00    +0.041 HD
ATOM    112  H   UNK A   1      -6.878  -4.060  -1.990  1.00  0.00    +0.041 HD
ATOM    113  H   UNK A   1      -9.585  -1.348  -1.890  1.00  0.00    +0.066 HD
ATOM    114  H   UNK A   1     -12.550  -1.378  -1.218  1.00  0.00    +0.030 HD
ATOM    115  H   UNK A   1     -11.939  -2.792  -2.016  1.00  0.00    +0.030 HD
ATOM    116  H   UNK A   1     -10.987  -1.402  -3.853  1.00  0.00    +0.030 HD
ATOM    117  H   UNK A   1     -13.165  -0.977  -4.927  1.00  0.00    +0.023 HD
ATOM    118  H   UNK A   1     -13.989  -1.028  -3.357  1.00  0.00    +0.023 HD
ATOM    119  H   UNK A   1     -13.221  -2.488  -4.009  1.00  0.00    +0.023 HD
ATOM    120  H   UNK A   1     -11.849   0.952  -4.117  1.00  0.00    +0.023 HD
ATOM    121  H   UNK A   1     -12.428   0.908  -2.443  1.00  0.00    +0.023 HD
ATOM    122  H   UNK A   1     -10.693   0.794  -2.797  1.00  0.00    +0.023 HD
ATOM    123  H   UNK A   1     -10.398   2.274   0.076  1.00  0.00    +0.066 HD
ATOM    124  H   UNK A   1      -9.487   2.957   2.165  1.00  0.00    +0.039 HD
ATOM    125  H   UNK A   1     -10.163   1.339   2.264  1.00  0.00    +0.039 HD
ATOM    126  H   UNK A   1      -6.885   1.660   1.041  1.00  0.00    +0.159 HD
ATOM    127  H   UNK A   1      -6.073   1.186   2.447  1.00  0.00    +0.159 HD
ATOM    128  H   UNK A   1      -5.795   2.881  -0.874  1.00  0.00    +0.066 HD
ATOM    129  H   UNK A   1      -6.793   4.328  -2.481  1.00  0.00    +0.039 HD
ATOM    130  H   UNK A   1      -5.373   5.183  -1.902  1.00  0.00    +0.039 HD
ATOM    131  H   UNK A   1      -6.782   6.190   0.517  1.00  0.00    +0.159 HD
ATOM    132  H   UNK A   1      -7.993   5.352   0.239  1.00  0.00    +0.159 HD
ATOM    133  H   UNK A   1      -2.460   4.736   0.156  1.00  0.00    +0.066 HD
ATOM    134  H   UNK A   1      -2.138   4.496   3.137  1.00  0.00    +0.034 HD
ATOM    135  H   UNK A   1      -3.663   5.209   2.752  1.00  0.00    +0.034 HD
ATOM    136  H   UNK A   1       0.010   5.497   2.093  1.00  0.00    +0.063 HD
ATOM    137  H   UNK A   1       1.157   7.626   1.713  1.00  0.00    +0.062 HD
ATOM    138  H   UNK A   1      -0.152   9.737   1.485  1.00  0.00    +0.062 HD
ATOM    139  H   UNK A   1      -2.654   9.650   1.613  1.00  0.00    +0.062 HD
ATOM    140  H   UNK A   1      -3.794   7.471   1.981  1.00  0.00    +0.063 HD
ATOM    141  H   UNK A   1       0.802   2.133   1.900  1.00  0.00    +0.067 HD
ATOM    142  H   UNK A   1       0.593   1.074  -0.994  1.00  0.00    +0.041 HD
ATOM    143  H   UNK A   1      -0.587   0.614   0.238  1.00  0.00    +0.041 HD
ATOM    144  H   UNK A   1       4.426   3.409  -0.459  1.00  0.00    +0.068 HD
ATOM    145  H   UNK A   1       4.566   5.079   2.125  1.00  0.00    +0.063 HD
ATOM    146  H   UNK A   1       5.949   6.628   0.781  1.00  0.00    +0.026 HD
ATOM    147  H   UNK A   1       5.858   5.563  -0.620  1.00  0.00    +0.026 HD
ATOM    148  H   UNK A   1       6.751   5.052   0.833  1.00  0.00    +0.026 HD
ATOM    149  H   UNK A   1       2.791   5.158   0.340  1.00  0.00    +0.211 HD
ATOM    150  H   UNK A   1       5.335   0.420  -1.074  1.00  0.00    +0.049 HD
ATOM    151  H   UNK A   1       4.145   0.956   0.115  1.00  0.00    +0.049 HD
ATOM    152  H   UNK A   1       4.824  -0.698   1.656  1.00  0.00    +0.029 HD
ATOM    153  H   UNK A   1       5.666  -1.417   0.275  1.00  0.00    +0.029 HD
ATOM    154  H   UNK A   1       7.601  -0.996   1.535  1.00  0.00    +0.029 HD
ATOM    155  H   UNK A   1       6.792   0.225   2.524  1.00  0.00    +0.029 HD
ATOM    156  H   UNK A   1       7.597   0.546  -0.394  1.00  0.00    +0.064 HD
ATOM    157  H   UNK A   1       9.633   0.231  -0.919  1.00  0.00    +0.066 HD
ATOM    158  H   UNK A   1      11.613   1.622  -0.586  1.00  0.00    +0.034 HD
ATOM    159  H   UNK A   1      11.956   0.148  -1.433  1.00  0.00    +0.034 HD
ATOM    160  H   UNK A   1      13.248  -1.676  -0.362  1.00  0.00    +0.063 HD
ATOM    161  H   UNK A   1      15.139  -2.164   1.151  1.00  0.00    +0.062 HD
ATOM    162  H   UNK A   1      15.754  -0.543   2.947  1.00  0.00    +0.062 HD
ATOM    163  H   UNK A   1      14.427   1.554   3.209  1.00  0.00    +0.062 HD
ATOM    164  H   UNK A   1      12.539   2.021   1.667  1.00  0.00    +0.063 HD
ATOM    165  H   UNK A   1       9.435  -4.006  -0.487  1.00  0.00    +0.066 HD
ATOM    166  H   UNK A   1       7.827  -2.072  -1.590  1.00  0.00    +0.040 HD
ATOM    167  H   UNK A   1       8.152  -2.981  -3.067  1.00  0.00    +0.040 HD
ATOM    168  H   UNK A   1       4.722  -4.156  -0.209  1.00  0.00    +0.068 HD
ATOM    169  H   UNK A   1       2.954  -2.677  -2.264  1.00  0.00    +0.041 HD
ATOM    170  H   UNK A   1       3.670  -1.926  -0.831  1.00  0.00    +0.041 HD
ATOM    171  H   UNK A   1       3.625  -6.008  -3.458  1.00  0.00    +0.296 HD
ATOM    172  H   UNK A   1      12.932  -6.066  -1.628  1.00  0.00    +0.064 HD
ATOM    173  H   UNK A   1      12.956  -4.543  -2.491  1.00  0.00    +0.064 HD
ATOM    174  H   UNK A   1      11.073  -5.264  -4.219  1.00  0.00    +0.296 HD
ATOM    175  H   UNK A   1      -1.992  -3.182   3.603  1.00  0.00    +0.063 HD
ATOM    176  H   UNK A   1      -4.019  -3.364   2.263  1.00  0.00    +0.063 HD
ATOM    177  H   UNK A   1      -4.924  -2.034  -0.177  1.00  0.00    +0.043 HD
ATOM    178  H   UNK A   1      -4.139  -2.959  -1.480  1.00  0.00    +0.043 HD
ATOM    179  H   UNK A   1      -1.802  -2.247  -1.244  1.00  0.00    +0.063 HD
ATOM    180  H   UNK A   1       0.469  -1.660  -1.194  1.00  0.00    +0.058 HD
ATOM    181  H   UNK A   1       1.418  -2.842   2.493  1.00  0.00    +0.028 HD
ATOM    182  H   UNK A   1       0.557  -1.459   3.237  1.00  0.00    +0.028 HD
ATOM    183  H   UNK A   1       0.318  -3.116   3.812  1.00  0.00    +0.028 HD
ENDROOT
TORSDOF 0