MODEL 1
REMARK VINA RESULT:      16.5      0.000      0.000
REMARK  Generated by RDKit with Gasteiger charges
REMARK  --------------------------------------------------
ROOT
ATOM      1  N   UNK A   1     -22.376  15.895   9.561  1.00  0.00    -0.131 N 
ATOM      2  C   UNK A   1     -20.966  15.642   9.159  1.00  0.00    +0.121 C 
ATOM      3  C   UNK A   1     -20.994  15.384   7.653  1.00  0.00    -0.037 C 
ATOM      4  C   UNK A   1     -20.119  16.887   9.510  1.00  0.00    +0.262 C 
ATOM      5  O   UNK A   1     -20.684  17.967   9.747  1.00  0.00    -0.271 OA
ATOM      6  N   UNK A   1     -18.779  16.762   9.463  1.00  0.00    -0.236 N 
ATOM      7  C   UNK A   1     -18.141  15.397   9.502  1.00  0.00    +0.143 C 
ATOM      8  C   UNK A   1     -16.637  15.434   9.043  1.00  0.00    +0.025 C 
ATOM      9  S   UNK A   1     -16.321  15.982   7.276  1.00  0.00    -0.154 S 
ATOM     10  C   UNK A   1     -18.192  14.768  10.946  1.00  0.00    +0.267 C 
ATOM     11  O   UNK A   1     -18.356  15.435  11.971  1.00  0.00    -0.270 OA
ATOM     12  N   UNK A   1     -18.083  13.422  10.902  1.00  0.00    -0.239 N 
ATOM     13  C   UNK A   1     -16.970  12.916  11.759  1.00  0.00    +0.124 C 
ATOM     14  C   UNK A   1     -16.611  11.421  11.509  1.00  0.00    +0.263 C 
ATOM     15  O   UNK A   1     -17.472  10.532  11.560  1.00  0.00    -0.271 OA
ATOM     16  N   UNK A   1     -15.278  11.237  11.356  1.00  0.00    -0.236 N 
ATOM     17  C   UNK A   1     -14.849  10.461  10.109  1.00  0.00    +0.134 C 
ATOM     18  C   UNK A   1     -15.486  11.104   8.843  1.00  0.00    -0.021 C 
ATOM     19  C   UNK A   1     -15.711  10.211   7.612  1.00  0.00    -0.050 C 
ATOM     20  C   UNK A   1     -16.389   8.850   7.808  1.00  0.00    -0.041 C 
ATOM     21  C   UNK A   1     -17.577   8.771   8.765  1.00  0.00    -0.008 C 
ATOM     22  N   UNK A   1     -18.667   9.735   8.523  1.00  0.00    -0.330 N 
ATOM     23  C   UNK A   1     -13.245  10.429   9.990  1.00  0.00    +0.266 C 
ATOM     24  O   UNK A   1     -12.522  10.934  10.859  1.00  0.00    -0.270 OA
ATOM     25  N   UNK A   1     -12.830   9.692   8.920  1.00  0.00    -0.236 N 
ATOM     26  C   UNK A   1     -11.441   9.982   8.352  1.00  0.00    +0.134 C 
ATOM     27  C   UNK A   1     -10.413   9.005   8.989  1.00  0.00    -0.020 C 
ATOM     28  C   UNK A   1     -10.235   9.249  10.478  1.00  0.00    -0.033 C 
ATOM     29  C   UNK A   1      -9.070   8.497  11.096  1.00  0.00    +0.018 C 
ATOM     30  N   UNK A   1      -8.832   8.997  12.471  1.00  0.00    -0.357 N 
ATOM     31  C   UNK A   1      -9.740   8.705  13.436  1.00  0.00    +0.185 C 
ATOM     32  N   UNK A   1      -9.716   7.591  14.085  1.00  0.00    -0.270 N 
ATOM     33  N   UNK A   1     -10.596   9.713  13.696  1.00  0.00    -0.370 N 
ATOM     34  C   UNK A   1     -11.355   9.803   6.758  1.00  0.00    +0.266 C 
ATOM     35  O   UNK A   1     -12.332   9.418   6.103  1.00  0.00    -0.270 OA
ATOM     36  N   UNK A   1     -10.101   9.918   6.233  1.00  0.00    -0.236 N 
ATOM     37  C   UNK A   1      -9.668  11.305   5.729  1.00  0.00    +0.136 C 
ATOM     38  C   UNK A   1      -8.698  11.890   6.815  1.00  0.00    -0.015 C 
ATOM     39  C   UNK A   1      -7.320  11.214   6.862  1.00  0.00    -0.060 C 
ATOM     40  C   UNK A   1      -8.553  13.417   6.764  1.00  0.00    -0.060 C 
ATOM     41  C   UNK A   1      -9.108  11.281   4.196  1.00  0.00    +0.267 C 
ATOM     42  O   UNK A   1      -9.545  10.451   3.389  1.00  0.00    -0.270 OA
ATOM     43  N   UNK A   1      -8.209  12.268   3.898  1.00  0.00    -0.235 N 
ATOM     44  C   UNK A   1      -8.165  12.754   2.440  1.00  0.00    +0.143 C 
ATOM     45  C   UNK A   1      -9.339  13.754   2.158  1.00  0.00    +0.027 C 
ATOM     46  S   UNK A   1      -9.528  15.299   3.208  1.00  0.00    -0.140 S 
ATOM     47  C   UNK A   1      -6.770  13.378   1.887  1.00  0.00    +0.267 C 
ATOM     48  O   UNK A   1      -6.022  14.041   2.610  1.00  0.00    -0.270 OA
ATOM     49  N   UNK A   1      -6.531  13.026   0.592  1.00  0.00    -0.236 N 
ATOM     50  C   UNK A   1      -5.937  13.982  -0.451  1.00  0.00    +0.135 C 
ATOM     51  C   UNK A   1      -6.259  15.528  -0.212  1.00  0.00    -0.012 C 
ATOM     52  C   UNK A   1      -6.381  16.375  -1.524  1.00  0.00    +0.031 C 
ATOM     53  C   UNK A   1      -6.592  17.933  -1.397  1.00  0.00    +0.242 C 
ATOM     54  O   UNK A   1      -5.862  18.617  -0.674  1.00  0.00    -0.273 OA
ATOM     55  C   UNK A   1      -4.410  13.725  -0.915  1.00  0.00    +0.266 C 
ATOM     56  O   UNK A   1      -3.561  14.614  -0.764  1.00  0.00    -0.270 OA
ATOM     57  N   UNK A   1      -7.525  18.384  -2.268  1.00  0.00    -0.237 N 
ATOM     58  C   UNK A   1      -8.051  19.796  -2.035  1.00  0.00    +0.143 C 
ATOM     59  C   UNK A   1      -7.655  20.687  -3.265  1.00  0.00    +0.060 C 
ATOM     60  C   UNK A   1      -7.692  22.250  -3.147  1.00  0.00    +0.244 C 
ATOM     61  O   UNK A   1      -8.583  22.876  -2.576  1.00  0.00    -0.273 OA
ATOM     62  C   UNK A   1      -9.622  19.637  -1.884  1.00  0.00    +0.267 C 
ATOM     63  O   UNK A   1     -10.402  19.733  -2.840  1.00  0.00    -0.270 OA
ATOM     64  N   UNK A   1      -4.177  12.546  -1.580  1.00  0.00    -0.236 N 
ATOM     65  C   UNK A   1      -2.738  12.315  -1.993  1.00  0.00    +0.140 C 
ATOM     66  C   UNK A   1      -1.701  12.279  -0.822  1.00  0.00    +0.023 C 
ATOM     67  C   UNK A   1      -1.950  11.364   0.347  1.00  0.00    +0.061 C 
ATOM     68  C   UNK A   1      -3.133  11.182   1.032  1.00  0.00    +0.024 C 
ATOM     69  N   UNK A   1      -2.848  10.396   2.097  1.00  0.00    -0.351 N 
ATOM     70  C   UNK A   1      -1.508  10.106   2.032  1.00  0.00    +0.092 C 
ATOM     71  N   UNK A   1      -0.913  10.680   1.008  1.00  0.00    -0.242 N 
ATOM     72  C   UNK A   1      -2.489  11.040  -2.870  1.00  0.00    +0.267 C 
ATOM     73  O   UNK A   1      -2.805   9.891  -2.558  1.00  0.00    -0.270 OA
ATOM     74  N   UNK A   1      -6.685  22.825  -3.852  1.00  0.00    -0.236 N 
ATOM     75  C   UNK A   1      -6.719  24.321  -3.830  1.00  0.00    +0.155 C 
ATOM     76  C   UNK A   1      -6.173  24.900  -2.508  1.00  0.00    +0.006 C 
ATOM     77  C   UNK A   1      -6.978  26.097  -2.036  1.00  0.00    -0.045 C 
ATOM     78  C   UNK A   1      -8.108  25.876  -1.238  1.00  0.00    -0.055 C 
ATOM     79  C   UNK A   1      -8.924  26.932  -0.838  1.00  0.00    -0.020 C 
ATOM     80  C   UNK A   1      -8.601  28.227  -1.237  1.00  0.00    +0.115 C 
ATOM     81  O   UNK A   1      -9.429  29.267  -0.917  1.00  0.00    -0.508 OA
ATOM     82  C   UNK A   1      -7.477  28.475  -2.021  1.00  0.00    -0.020 C 
ATOM     83  C   UNK A   1      -6.668  27.406  -2.425  1.00  0.00    -0.055 C 
ATOM     84  C   UNK A   1      -5.820  24.777  -4.981  1.00  0.00    +0.328 C 
ATOM     85  O   UNK A   1      -5.531  25.944  -5.248  1.00  0.00    -0.250 OA
ATOM     86  O   UNK A   1      -5.351  23.730  -5.710  1.00  0.00    -0.480 OA
ATOM     87  N   UNK A   1      -9.982  19.482  -0.592  1.00  0.00    -0.233 N 
ATOM     88  C   UNK A   1     -11.027  18.443  -0.341  1.00  0.00    +0.160 C 
ATOM     89  C   UNK A   1     -10.585  17.481   0.825  1.00  0.00    +0.028 C 
ATOM     90  S   UNK A   1     -11.949  16.372   1.452  1.00  0.00    -0.140 S 
ATOM     91  C   UNK A   1     -12.313  19.178   0.004  1.00  0.00    +0.329 C 
ATOM     92  O   UNK A   1     -13.390  19.132  -0.591  1.00  0.00    -0.250 OA
ATOM     93  O   UNK A   1     -12.259  19.933   1.129  1.00  0.00    -0.480 OA
ATOM     94  N   UNK A   1      -1.796  11.297  -4.005  1.00  0.00    -0.238 N 
ATOM     95  C   UNK A   1      -0.684  10.370  -4.246  1.00  0.00    +0.140 C 
ATOM     96  C   UNK A   1      -1.041   9.087  -4.974  1.00  0.00    +0.325 C 
ATOM     97  O   UNK A   1      -0.290   8.527  -5.779  1.00  0.00    -0.250 OA
ATOM     98  O   UNK A   1      -2.229   8.545  -4.640  1.00  0.00    -0.480 OA
ATOM     99  C   UNK A   1     -12.452  18.116   5.860  1.00  0.00    -0.059 C 
ATOM    100  C   UNK A   1     -13.422  17.367   6.531  1.00  0.00    -0.058 C 
ATOM    101  C   UNK A   1     -13.700  16.061   6.140  1.00  0.00    -0.038 C 
ATOM    102  C   UNK A   1     -14.655  15.201   6.981  1.00  0.00    +0.019 C 
ATOM    103  C   UNK A   1     -12.981  15.539   5.030  1.00  0.00    -0.053 C 
ATOM    104  C   UNK A   1     -11.992  16.288   4.304  1.00  0.00    -0.022 C 
ATOM    105  C   UNK A   1     -11.316  15.623   3.054  1.00  0.00    +0.076 C 
ATOM    106  C   UNK A   1     -11.717  17.592   4.772  1.00  0.00    -0.046 C 
ATOM    107  C   UNK A   1     -10.699  18.509   4.161  1.00  0.00    -0.039 C 
ATOM    108  H   UNK A   1     -20.645  14.761   9.718  1.00  0.00    +0.060 HD
ATOM    109  H   UNK A   1     -21.625  14.519   7.419  1.00  0.00    +0.025 HD
ATOM    110  H   UNK A   1     -21.378  16.247   7.093  1.00  0.00    +0.025 HD
ATOM    111  H   UNK A   1     -19.996  15.179   7.253  1.00  0.00    +0.025 HD
ATOM    112  H   UNK A   1     -18.621  14.685   8.815  1.00  0.00    +0.067 HD
ATOM    113  H   UNK A   1     -16.215  14.427   9.129  1.00  0.00    +0.041 HD
ATOM    114  H   UNK A   1     -16.054  16.087   9.698  1.00  0.00    +0.041 HD
ATOM    115  H   UNK A   1     -17.228  12.991  12.825  1.00  0.00    +0.062 HD
ATOM    116  H   UNK A   1     -16.063  13.527  11.610  1.00  0.00    +0.062 HD
ATOM    117  H   UNK A   1     -15.155   9.410  10.226  1.00  0.00    +0.066 HD
ATOM    118  H   UNK A   1     -16.466  11.538   9.073  1.00  0.00    +0.029 HD
ATOM    119  H   UNK A   1     -14.870  11.960   8.527  1.00  0.00    +0.029 HD
ATOM    120  H   UNK A   1     -14.759  10.045   7.096  1.00  0.00    +0.027 HD
ATOM    121  H   UNK A   1     -16.302  10.799   6.896  1.00  0.00    +0.027 HD
ATOM    122  H   UNK A   1     -16.711   8.499   6.818  1.00  0.00    +0.028 HD
ATOM    123  H   UNK A   1     -15.637   8.127   8.146  1.00  0.00    +0.028 HD
ATOM    124  H   UNK A   1     -18.005   7.761   8.710  1.00  0.00    +0.043 HD
ATOM    125  H   UNK A   1     -17.233   8.880   9.797  1.00  0.00    +0.043 HD
ATOM    126  H   UNK A   1     -18.660  10.303   9.400  1.00  0.00    +0.118 HD
ATOM    127  H   UNK A   1     -18.279  10.453   7.903  1.00  0.00    +0.118 HD
ATOM    128  H   UNK A   1     -11.160  11.026   8.551  1.00  0.00    +0.066 HD
ATOM    129  H   UNK A   1      -9.430   9.119   8.516  1.00  0.00    +0.029 HD
ATOM    130  H   UNK A   1     -10.721   7.963   8.813  1.00  0.00    +0.029 HD
ATOM    131  H   UNK A   1     -10.086  10.322  10.648  1.00  0.00    +0.029 HD
ATOM    132  H   UNK A   1     -11.144   8.937  11.002  1.00  0.00    +0.029 HD
ATOM    133  H   UNK A   1      -9.258   7.420  11.113  1.00  0.00    +0.049 HD
ATOM    134  H   UNK A   1      -8.157   8.663  10.519  1.00  0.00    +0.049 HD
ATOM    135  H   UNK A   1      -8.804  10.017  12.371  1.00  0.00    +0.163 HD
ATOM    136  H   UNK A   1      -8.967   7.081  13.612  1.00  0.00    +0.191 HD
ATOM    137  H   UNK A   1     -10.949  10.176  12.844  1.00  0.00    +0.159 HD
ATOM    138  H   UNK A   1     -11.435   9.386  14.165  1.00  0.00    +0.159 HD
ATOM    139  H   UNK A   1     -10.550  11.966   5.681  1.00  0.00    +0.066 HD
ATOM    140  H   UNK A   1      -9.154  11.695   7.794  1.00  0.00    +0.032 HD
ATOM    141  H   UNK A   1      -6.720  11.426   5.978  1.00  0.00    +0.023 HD
ATOM    142  H   UNK A   1      -6.750  11.571   7.731  1.00  0.00    +0.023 HD
ATOM    143  H   UNK A   1      -7.417  10.127   6.954  1.00  0.00    +0.023 HD
ATOM    144  H   UNK A   1      -7.926  13.756   5.936  1.00  0.00    +0.023 HD
ATOM    145  H   UNK A   1      -9.533  13.904   6.689  1.00  0.00    +0.023 HD
ATOM    146  H   UNK A   1      -8.084  13.771   7.692  1.00  0.00    +0.023 HD
ATOM    147  H   UNK A   1      -8.336  11.883   1.788  1.00  0.00    +0.067 HD
ATOM    148  H   UNK A   1      -9.273  14.106   1.124  1.00  0.00    +0.041 HD
ATOM    149  H   UNK A   1     -10.279  13.193   2.251  1.00  0.00    +0.041 HD
ATOM    150  H   UNK A   1      -6.503  13.750  -1.367  1.00  0.00    +0.066 HD
ATOM    151  H   UNK A   1      -7.213  15.631   0.319  1.00  0.00    +0.030 HD
ATOM    152  H   UNK A   1      -5.492  15.965   0.437  1.00  0.00    +0.030 HD
ATOM    153  H   UNK A   1      -5.470  16.246  -2.121  1.00  0.00    +0.037 HD
ATOM    154  H   UNK A   1      -7.206  15.954  -2.115  1.00  0.00    +0.037 HD
ATOM    155  H   UNK A   1      -7.660  20.274  -1.124  1.00  0.00    +0.066 HD
ATOM    156  H   UNK A   1      -6.622  20.419  -3.530  1.00  0.00    +0.040 HD
ATOM    157  H   UNK A   1      -8.273  20.429  -4.135  1.00  0.00    +0.040 HD
ATOM    158  H   UNK A   1      -2.451  13.170  -2.632  1.00  0.00    +0.066 HD
ATOM    159  H   UNK A   1      -1.593  13.295  -0.408  1.00  0.00    +0.036 HD
ATOM    160  H   UNK A   1      -0.712  12.029  -1.234  1.00  0.00    +0.036 HD
ATOM    161  H   UNK A   1      -4.126  11.593   0.875  1.00  0.00    +0.084 HD
ATOM    162  H   UNK A   1      -3.522  10.138   2.808  1.00  0.00    +0.167 HD
ATOM    163  H   UNK A   1      -1.036   9.481   2.771  1.00  0.00    +0.104 HD
ATOM    164  H   UNK A   1      -7.722  24.692  -4.079  1.00  0.00    +0.068 HD
ATOM    165  H   UNK A   1      -6.189  24.146  -1.707  1.00  0.00    +0.034 HD
ATOM    166  H   UNK A   1      -5.117  25.192  -2.601  1.00  0.00    +0.034 HD
ATOM    167  H   UNK A   1      -8.368  24.851  -0.957  1.00  0.00    +0.063 HD
ATOM    168  H   UNK A   1      -9.807  26.682  -0.260  1.00  0.00    +0.066 HD
ATOM    169  H   UNK A   1     -10.209  28.848  -0.517  1.00  0.00    +0.293 HD
ATOM    170  H   UNK A   1      -7.251  29.477  -2.355  1.00  0.00    +0.066 HD
ATOM    171  H   UNK A   1      -5.818  27.574  -3.080  1.00  0.00    +0.063 HD
ATOM    172  H   UNK A   1      -5.747  22.951  -5.202  1.00  0.00    +0.296 HD
ATOM    173  H   UNK A   1     -11.227  17.815  -1.218  1.00  0.00    +0.068 HD
ATOM    174  H   UNK A   1      -9.768  16.847   0.468  1.00  0.00    +0.041 HD
ATOM    175  H   UNK A   1     -10.196  18.073   1.654  1.00  0.00    +0.041 HD
ATOM    176  H   UNK A   1     -13.186  20.198   1.205  1.00  0.00    +0.296 HD
ATOM    177  H   UNK A   1       0.050  10.879  -4.888  1.00  0.00    +0.064 HD
ATOM    178  H   UNK A   1      -0.143  10.094  -3.332  1.00  0.00    +0.064 HD
ATOM    179  H   UNK A   1      -2.611   9.162  -3.936  1.00  0.00    +0.296 HD
ATOM    180  H   UNK A   1     -12.262  19.132   6.187  1.00  0.00    +0.063 HD
ATOM    181  H   UNK A   1     -13.933  17.798   7.386  1.00  0.00    +0.063 HD
ATOM    182  H   UNK A   1     -14.836  14.240   6.488  1.00  0.00    +0.043 HD
ATOM    183  H   UNK A   1     -14.168  15.006   7.944  1.00  0.00    +0.043 HD
ATOM    184  H   UNK A   1     -13.166  14.503   4.738  1.00  0.00    +0.063 HD
ATOM    185  H   UNK A   1     -11.757  14.621   3.016  1.00  0.00    +0.058 HD
ATOM    186  H   UNK A   1     -10.346  19.243   4.897  1.00  0.00    +0.028 HD
ATOM    187  H   UNK A   1      -9.803  17.985   3.833  1.00  0.00    +0.028 HD
ATOM    188  H   UNK A   1     -11.153  19.065   3.342  1.00  0.00    +0.028 HD
ENDROOT
TORSDOF 0
ENDMDL
MODEL 2
REMARK VINA RESULT:      17.8      1.374      1.475
REMARK  Generated by RDKit with Gasteiger charges
REMARK  --------------------------------------------------
ROOT
ATOM      1  N   UNK A   1     -21.953  17.393   9.160  1.00  0.00    -0.131 N 
ATOM      2  C   UNK A   1     -20.609  16.986   8.667  1.00  0.00    +0.121 C 
ATOM      3  C   UNK A   1     -20.761  16.756   7.163  1.00  0.00    -0.037 C 
ATOM      4  C   UNK A   1     -19.604  18.121   8.972  1.00  0.00    +0.262 C 
ATOM      5  O   UNK A   1     -20.024  19.254   9.254  1.00  0.00    -0.271 OA
ATOM      6  N   UNK A   1     -18.292  17.843   8.839  1.00  0.00    -0.236 N 
ATOM      7  C   UNK A   1     -17.815  16.414   8.825  1.00  0.00    +0.143 C 
ATOM      8  C   UNK A   1     -16.349  16.285   8.271  1.00  0.00    +0.025 C 
ATOM      9  S   UNK A   1     -16.083  16.820   6.493  1.00  0.00    -0.154 S 
ATOM     10  C   UNK A   1     -17.848  15.773  10.265  1.00  0.00    +0.267 C 
ATOM     11  O   UNK A   1     -17.869  16.439  11.304  1.00  0.00    -0.270 OA
ATOM     12  N   UNK A   1     -17.897  14.424  10.203  1.00  0.00    -0.239 N 
ATOM     13  C   UNK A   1     -16.799  13.781  10.984  1.00  0.00    +0.124 C 
ATOM     14  C   UNK A   1     -16.631  12.259  10.699  1.00  0.00    +0.263 C 
ATOM     15  O   UNK A   1     -17.584  11.473  10.798  1.00  0.00    -0.271 OA
ATOM     16  N   UNK A   1     -15.341  11.925  10.460  1.00  0.00    -0.236 N 
ATOM     17  C   UNK A   1     -15.083  11.124   9.181  1.00  0.00    +0.134 C 
ATOM     18  C   UNK A   1     -15.719  11.856   7.964  1.00  0.00    -0.021 C 
ATOM     19  C   UNK A   1     -16.123  11.013   6.743  1.00  0.00    -0.050 C 
ATOM     20  C   UNK A   1     -16.939   9.736   6.971  1.00  0.00    -0.041 C 
ATOM     21  C   UNK A   1     -18.067   9.779   8.002  1.00  0.00    -0.008 C 
ATOM     22  N   UNK A   1     -19.051  10.865   7.838  1.00  0.00    -0.330 N 
ATOM     23  C   UNK A   1     -13.504  10.911   8.960  1.00  0.00    +0.266 C 
ATOM     24  O   UNK A   1     -12.675  11.316   9.785  1.00  0.00    -0.270 OA
ATOM     25  N   UNK A   1     -13.244  10.148   7.860  1.00  0.00    -0.236 N 
ATOM     26  C   UNK A   1     -11.870  10.285   7.206  1.00  0.00    +0.134 C 
ATOM     27  C   UNK A   1     -10.924   9.188   7.768  1.00  0.00    -0.020 C 
ATOM     28  C   UNK A   1     -10.625   9.387   9.245  1.00  0.00    -0.033 C 
ATOM     29  C   UNK A   1      -9.519   8.496   9.781  1.00  0.00    +0.018 C 
ATOM     30  N   UNK A   1      -9.138   8.945  11.142  1.00  0.00    -0.357 N 
ATOM     31  C   UNK A   1     -10.012   8.744  12.160  1.00  0.00    +0.185 C 
ATOM     32  N   UNK A   1     -10.076   7.626  12.798  1.00  0.00    -0.270 N 
ATOM     33  N   UNK A   1     -10.728   9.840  12.483  1.00  0.00    -0.370 N 
ATOM     34  C   UNK A   1     -11.905  10.122   5.609  1.00  0.00    +0.266 C 
ATOM     35  O   UNK A   1     -12.959   9.861   5.014  1.00  0.00    -0.270 OA
ATOM     36  N   UNK A   1     -10.682  10.100   5.006  1.00  0.00    -0.236 N 
ATOM     37  C   UNK A   1     -10.124  11.436   4.485  1.00  0.00    +0.136 C 
ATOM     38  C   UNK A   1      -9.027  11.889   5.512  1.00  0.00    -0.015 C 
ATOM     39  C   UNK A   1      -7.736  11.059   5.465  1.00  0.00    -0.060 C 
ATOM     40  C   UNK A   1      -8.710  13.390   5.463  1.00  0.00    -0.060 C 
ATOM     41  C   UNK A   1      -9.668  11.372   2.919  1.00  0.00    +0.267 C 
ATOM     42  O   UNK A   1     -10.247  10.609   2.135  1.00  0.00    -0.270 OA
ATOM     43  N   UNK A   1      -8.682  12.253   2.573  1.00  0.00    -0.235 N 
ATOM     44  C   UNK A   1      -8.673  12.753   1.118  1.00  0.00    +0.143 C 
ATOM     45  C   UNK A   1      -9.740  13.885   0.921  1.00  0.00    +0.027 C 
ATOM     46  S   UNK A   1      -9.683  15.426   1.992  1.00  0.00    -0.140 S 
ATOM     47  C   UNK A   1      -7.254  13.221   0.482  1.00  0.00    +0.267 C 
ATOM     48  O   UNK A   1      -6.390  13.783   1.161  1.00  0.00    -0.270 OA
ATOM     49  N   UNK A   1      -7.138  12.864  -0.829  1.00  0.00    -0.236 N 
ATOM     50  C   UNK A   1      -6.504  13.762  -1.900  1.00  0.00    +0.135 C 
ATOM     51  C   UNK A   1      -6.631  15.330  -1.628  1.00  0.00    -0.012 C 
ATOM     52  C   UNK A   1      -6.736  16.206  -2.923  1.00  0.00    +0.031 C 
ATOM     53  C   UNK A   1      -6.757  17.775  -2.771  1.00  0.00    +0.242 C 
ATOM     54  O   UNK A   1      -5.910  18.360  -2.090  1.00  0.00    -0.273 OA
ATOM     55  C   UNK A   1      -5.049  13.338  -2.462  1.00  0.00    +0.266 C 
ATOM     56  O   UNK A   1      -4.096  14.122  -2.359  1.00  0.00    -0.270 OA
ATOM     57  N   UNK A   1      -7.685  18.344  -3.576  1.00  0.00    -0.237 N 
ATOM     58  C   UNK A   1      -8.029  19.803  -3.299  1.00  0.00    +0.143 C 
ATOM     59  C   UNK A   1      -7.611  20.661  -4.545  1.00  0.00    +0.060 C 
ATOM     60  C   UNK A   1      -7.460  22.216  -4.412  1.00  0.00    +0.244 C 
ATOM     61  O   UNK A   1      -8.235  22.931  -3.780  1.00  0.00    -0.273 OA
ATOM     62  C   UNK A   1      -9.596  19.823  -3.049  1.00  0.00    +0.267 C 
ATOM     63  O   UNK A   1     -10.417  20.022  -3.952  1.00  0.00    -0.270 OA
ATOM     64  N   UNK A   1      -4.997  12.151  -3.150  1.00  0.00    -0.236 N 
ATOM     65  C   UNK A   1      -3.622  11.763  -3.657  1.00  0.00    +0.140 C 
ATOM     66  C   UNK A   1      -2.525  11.590  -2.555  1.00  0.00    +0.023 C 
ATOM     67  C   UNK A   1      -2.804  10.692  -1.379  1.00  0.00    +0.061 C 
ATOM     68  C   UNK A   1      -3.954  10.637  -0.622  1.00  0.00    +0.024 C 
ATOM     69  N   UNK A   1      -3.695   9.807   0.417  1.00  0.00    -0.351 N 
ATOM     70  C   UNK A   1      -2.405   9.366   0.264  1.00  0.00    +0.092 C 
ATOM     71  N   UNK A   1      -1.813   9.884  -0.791  1.00  0.00    -0.242 N 
ATOM     72  C   UNK A   1      -3.578  10.481  -4.558  1.00  0.00    +0.267 C 
ATOM     73  O   UNK A   1      -4.003   9.371  -4.236  1.00  0.00    -0.270 OA
ATOM     74  N   UNK A   1      -6.440  22.683  -5.175  1.00  0.00    -0.236 N 
ATOM     75  C   UNK A   1      -6.300  24.172  -5.140  1.00  0.00    +0.155 C 
ATOM     76  C   UNK A   1      -5.609  24.664  -3.851  1.00  0.00    +0.006 C 
ATOM     77  C   UNK A   1      -6.239  25.939  -3.319  1.00  0.00    -0.045 C 
ATOM     78  C   UNK A   1      -7.335  25.837  -2.452  1.00  0.00    -0.055 C 
ATOM     79  C   UNK A   1      -7.997  26.973  -1.992  1.00  0.00    -0.020 C 
ATOM     80  C   UNK A   1      -7.552  28.228  -2.401  1.00  0.00    +0.115 C 
ATOM     81  O   UNK A   1      -8.232  29.351  -2.020  1.00  0.00    -0.508 OA
ATOM     82  C   UNK A   1      -6.458  28.357  -3.253  1.00  0.00    -0.020 C 
ATOM     83  C   UNK A   1      -5.804  27.209  -3.716  1.00  0.00    -0.055 C 
ATOM     84  C   UNK A   1      -5.428  24.540  -6.343  1.00  0.00    +0.328 C 
ATOM     85  O   UNK A   1      -5.024  25.670  -6.618  1.00  0.00    -0.250 OA
ATOM     86  O   UNK A   1      -5.130  23.457  -7.109  1.00  0.00    -0.480 OA
ATOM     87  N   UNK A   1      -9.889  19.690  -1.738  1.00  0.00    -0.233 N 
ATOM     88  C   UNK A   1     -11.029  18.774  -1.428  1.00  0.00    +0.160 C 
ATOM     89  C   UNK A   1     -10.628  17.751  -0.300  1.00  0.00    +0.028 C 
ATOM     90  S   UNK A   1     -12.069  16.795   0.404  1.00  0.00    -0.140 S 
ATOM     91  C   UNK A   1     -12.197  19.646  -0.996  1.00  0.00    +0.329 C 
ATOM     92  O   UNK A   1     -13.308  19.733  -1.521  1.00  0.00    -0.250 OA
ATOM     93  O   UNK A   1     -11.986  20.373   0.130  1.00  0.00    -0.480 OA
ATOM     94  N   UNK A   1      -2.932  10.674  -5.732  1.00  0.00    -0.238 N 
ATOM     95  C   UNK A   1      -1.951   9.630  -6.052  1.00  0.00    +0.140 C 
ATOM     96  C   UNK A   1      -2.499   8.407  -6.766  1.00  0.00    +0.325 C 
ATOM     97  O   UNK A   1      -1.869   7.777  -7.621  1.00  0.00    -0.250 OA
ATOM     98  O   UNK A   1      -3.718   8.000  -6.360  1.00  0.00    -0.480 OA
ATOM     99  C   UNK A   1     -12.090  18.519   4.848  1.00  0.00    -0.059 C 
ATOM    100  C   UNK A   1     -13.097  17.875   5.575  1.00  0.00    -0.058 C 
ATOM    101  C   UNK A   1     -13.547  16.616   5.192  1.00  0.00    -0.038 C 
ATOM    102  C   UNK A   1     -14.540  15.858   6.085  1.00  0.00    +0.019 C 
ATOM    103  C   UNK A   1     -12.964  16.032   4.034  1.00  0.00    -0.053 C 
ATOM    104  C   UNK A   1     -11.943  16.673   3.252  1.00  0.00    -0.022 C 
ATOM    105  C   UNK A   1     -11.428  15.954   1.956  1.00  0.00    +0.076 C 
ATOM    106  C   UNK A   1     -11.490  17.930   3.711  1.00  0.00    -0.046 C 
ATOM    107  C   UNK A   1     -10.414  18.734   3.044  1.00  0.00    -0.039 C 
ATOM    108  H   UNK A   1     -20.357  16.066   9.197  1.00  0.00    +0.060 HD
ATOM    109  H   UNK A   1     -21.501  15.973   6.963  1.00  0.00    +0.025 HD
ATOM    110  H   UNK A   1     -21.077  17.666   6.636  1.00  0.00    +0.025 HD
ATOM    111  H   UNK A   1     -19.821  16.444   6.698  1.00  0.00    +0.025 HD
ATOM    112  H   UNK A   1     -18.416  15.772   8.165  1.00  0.00    +0.067 HD
ATOM    113  H   UNK A   1     -16.041  15.236   8.323  1.00  0.00    +0.041 HD
ATOM    114  H   UNK A   1     -15.655  16.858   8.893  1.00  0.00    +0.041 HD
ATOM    115  H   UNK A   1     -16.979  13.869  12.065  1.00  0.00    +0.062 HD
ATOM    116  H   UNK A   1     -15.839  14.286  10.781  1.00  0.00    +0.062 HD
ATOM    117  H   UNK A   1     -15.500  10.114   9.309  1.00  0.00    +0.066 HD
ATOM    118  H   UNK A   1     -16.627  12.396   8.260  1.00  0.00    +0.029 HD
ATOM    119  H   UNK A   1     -15.030  12.640   7.616  1.00  0.00    +0.029 HD
ATOM    120  H   UNK A   1     -15.230  10.747   6.166  1.00  0.00    +0.027 HD
ATOM    121  H   UNK A   1     -16.686  11.676   6.071  1.00  0.00    +0.027 HD
ATOM    122  H   UNK A   1     -17.361   9.440   6.001  1.00  0.00    +0.028 HD
ATOM    123  H   UNK A   1     -16.256   8.927   7.254  1.00  0.00    +0.028 HD
ATOM    124  H   UNK A   1     -18.611   8.826   7.967  1.00  0.00    +0.043 HD
ATOM    125  H   UNK A   1     -17.648   9.832   9.010  1.00  0.00    +0.043 HD
ATOM    126  H   UNK A   1     -18.923  11.416   8.717  1.00  0.00    +0.118 HD
ATOM    127  H   UNK A   1     -18.622  11.544   7.200  1.00  0.00    +0.118 HD
ATOM    128  H   UNK A   1     -11.458  11.286   7.394  1.00  0.00    +0.066 HD
ATOM    129  H   UNK A   1      -9.966   9.195   7.234  1.00  0.00    +0.029 HD
ATOM    130  H   UNK A   1     -11.360   8.190   7.604  1.00  0.00    +0.029 HD
ATOM    131  H   UNK A   1     -10.343  10.433   9.413  1.00  0.00    +0.029 HD
ATOM    132  H   UNK A   1     -11.530   9.173   9.823  1.00  0.00    +0.029 HD
ATOM    133  H   UNK A   1      -9.828   7.448   9.801  1.00  0.00    +0.049 HD
ATOM    134  H   UNK A   1      -8.630   8.566   9.148  1.00  0.00    +0.049 HD
ATOM    135  H   UNK A   1      -9.000   9.956  11.048  1.00  0.00    +0.163 HD
ATOM    136  H   UNK A   1      -9.422   7.040  12.274  1.00  0.00    +0.191 HD
ATOM    137  H   UNK A   1     -11.078  10.353  11.659  1.00  0.00    +0.159 HD
ATOM    138  H   UNK A   1     -11.568   9.604  13.001  1.00  0.00    +0.159 HD
ATOM    139  H   UNK A   1     -10.926  12.195   4.499  1.00  0.00    +0.066 HD
ATOM    140  H   UNK A   1      -9.440  11.733   6.517  1.00  0.00    +0.032 HD
ATOM    141  H   UNK A   1      -7.172  11.214   4.546  1.00  0.00    +0.023 HD
ATOM    142  H   UNK A   1      -7.075  11.335   6.299  1.00  0.00    +0.023 HD
ATOM    143  H   UNK A   1      -7.952   9.990   5.554  1.00  0.00    +0.023 HD
ATOM    144  H   UNK A   1      -8.102  13.668   4.600  1.00  0.00    +0.023 HD
ATOM    145  H   UNK A   1      -9.630  13.988   5.455  1.00  0.00    +0.023 HD
ATOM    146  H   UNK A   1      -8.146  13.674   6.362  1.00  0.00    +0.023 HD
ATOM    147  H   UNK A   1      -8.984  11.918   0.471  1.00  0.00    +0.067 HD
ATOM    148  H   UNK A   1      -9.698  14.243  -0.113  1.00  0.00    +0.041 HD
ATOM    149  H   UNK A   1     -10.730  13.434   1.069  1.00  0.00    +0.041 HD
ATOM    150  H   UNK A   1      -7.149  13.610  -2.780  1.00  0.00    +0.066 HD
ATOM    151  H   UNK A   1      -7.531  15.534  -1.036  1.00  0.00    +0.030 HD
ATOM    152  H   UNK A   1      -5.778  15.667  -1.027  1.00  0.00    +0.030 HD
ATOM    153  H   UNK A   1      -5.885  15.982  -3.578  1.00  0.00    +0.037 HD
ATOM    154  H   UNK A   1      -7.639  15.891  -3.463  1.00  0.00    +0.037 HD
ATOM    155  H   UNK A   1      -7.529  20.219  -2.412  1.00  0.00    +0.066 HD
ATOM    156  H   UNK A   1      -6.635  20.281  -4.877  1.00  0.00    +0.040 HD
ATOM    157  H   UNK A   1      -8.308  20.489  -5.375  1.00  0.00    +0.040 HD
ATOM    158  H   UNK A   1      -3.280  12.588  -4.306  1.00  0.00    +0.066 HD
ATOM    159  H   UNK A   1      -2.274  12.581  -2.141  1.00  0.00    +0.036 HD
ATOM    160  H   UNK A   1      -1.599  11.234  -3.031  1.00  0.00    +0.036 HD
ATOM    161  H   UNK A   1      -4.902  11.161  -0.711  1.00  0.00    +0.084 HD
ATOM    162  H   UNK A   1      -4.350   9.617   1.168  1.00  0.00    +0.167 HD
ATOM    163  H   UNK A   1      -1.963   8.680   0.967  1.00  0.00    +0.104 HD
ATOM    164  H   UNK A   1      -7.266  24.660  -5.321  1.00  0.00    +0.068 HD
ATOM    165  H   UNK A   1      -5.661  23.906  -3.056  1.00  0.00    +0.034 HD
ATOM    166  H   UNK A   1      -4.534  24.835  -4.009  1.00  0.00    +0.034 HD
ATOM    167  H   UNK A   1      -7.693  24.844  -2.163  1.00  0.00    +0.063 HD
ATOM    168  H   UNK A   1      -8.864  26.817  -1.361  1.00  0.00    +0.066 HD
ATOM    169  H   UNK A   1      -9.029  29.018  -1.575  1.00  0.00    +0.293 HD
ATOM    170  H   UNK A   1      -6.139  29.332  -3.593  1.00  0.00    +0.066 HD
ATOM    171  H   UNK A   1      -4.984  27.289  -4.423  1.00  0.00    +0.063 HD
ATOM    172  H   UNK A   1      -5.580  22.721  -6.582  1.00  0.00    +0.296 HD
ATOM    173  H   UNK A   1     -11.355  18.187  -2.296  1.00  0.00    +0.068 HD
ATOM    174  H   UNK A   1      -9.914  17.033  -0.715  1.00  0.00    +0.041 HD
ATOM    175  H   UNK A   1     -10.123  18.281   0.506  1.00  0.00    +0.041 HD
ATOM    176  H   UNK A   1     -12.870  20.742   0.266  1.00  0.00    +0.296 HD
ATOM    177  H   UNK A   1      -1.205  10.061  -6.735  1.00  0.00    +0.064 HD
ATOM    178  H   UNK A   1      -1.390   9.280  -5.177  1.00  0.00    +0.064 HD
ATOM    179  H   UNK A   1      -3.982   8.645  -5.629  1.00  0.00    +0.296 HD
ATOM    180  H   UNK A   1     -11.764  19.500   5.170  1.00  0.00    +0.063 HD
ATOM    181  H   UNK A   1     -13.500  18.349   6.463  1.00  0.00    +0.063 HD
ATOM    182  H   UNK A   1     -14.861  14.932   5.597  1.00  0.00    +0.043 HD
ATOM    183  H   UNK A   1     -14.020  15.594   7.014  1.00  0.00    +0.043 HD
ATOM    184  H   UNK A   1     -13.286  15.028   3.745  1.00  0.00    +0.063 HD
ATOM    185  H   UNK A   1     -11.983  15.010   1.938  1.00  0.00    +0.058 HD
ATOM    186  H   UNK A   1      -9.933  19.411   3.761  1.00  0.00    +0.028 HD
ATOM    187  H   UNK A   1      -9.606  18.116   2.654  1.00  0.00    +0.028 HD
ATOM    188  H   UNK A   1     -10.851  19.350   2.260  1.00  0.00    +0.028 HD
ENDROOT
TORSDOF 0
ENDMDL
