REMARK  Generated by RDKit with Gasteiger charges
REMARK  --------------------------------------------------
ROOT
ATOM      1  N   UNK A   1     -12.614  -7.395   1.543  1.00  0.00    -0.131 N 
ATOM      2  C   UNK A   1     -11.465  -6.494   1.283  1.00  0.00    +0.121 C 
ATOM      3  C   UNK A   1     -10.690  -6.375   2.594  1.00  0.00    -0.037 C 
ATOM      4  C   UNK A   1     -10.580  -7.133   0.190  1.00  0.00    +0.262 C 
ATOM      5  O   UNK A   1     -10.526  -8.370   0.096  1.00  0.00    -0.271 OA
ATOM      6  N   UNK A   1      -9.852  -6.322  -0.596  1.00  0.00    -0.236 N 
ATOM      7  C   UNK A   1      -9.854  -4.823  -0.405  1.00  0.00    +0.143 C 
ATOM      8  C   UNK A   1      -8.476  -4.237  -0.899  1.00  0.00    +0.025 C 
ATOM      9  S   UNK A   1      -7.116  -4.399   0.380  1.00  0.00    -0.154 S 
ATOM     10  C   UNK A   1     -11.107  -4.139  -1.108  1.00  0.00    +0.267 C 
ATOM     11  O   UNK A   1     -12.087  -4.785  -1.492  1.00  0.00    -0.270 OA
ATOM     12  N   UNK A   1     -10.986  -2.799  -1.112  1.00  0.00    -0.236 N 
ATOM     13  C   UNK A   1     -12.231  -1.983  -1.021  1.00  0.00    +0.135 C 
ATOM     14  C   UNK A   1     -12.789  -2.011   0.424  1.00  0.00    -0.013 C 
ATOM     15  C   UNK A   1     -14.179  -1.367   0.541  1.00  0.00    +0.029 C 
ATOM     16  C   UNK A   1     -14.324  -0.155   1.453  1.00  0.00    +0.217 C 
ATOM     17  O   UNK A   1     -15.414   0.139   1.962  1.00  0.00    -0.275 OA
ATOM     18  N   UNK A   1     -13.211   0.584   1.669  1.00  0.00    -0.370 N 
ATOM     19  C   UNK A   1     -11.965  -0.543  -1.635  1.00  0.00    +0.266 C 
ATOM     20  O   UNK A   1     -11.998  -0.411  -2.866  1.00  0.00    -0.270 OA
ATOM     21  N   UNK A   1     -11.824   0.455  -0.734  1.00  0.00    -0.235 N 
ATOM     22  C   UNK A   1     -11.182   1.754  -1.206  1.00  0.00    +0.143 C 
ATOM     23  C   UNK A   1     -12.091   2.485  -2.239  1.00  0.00    +0.058 C 
ATOM     24  C   UNK A   1     -11.666   2.506  -3.707  1.00  0.00    +0.220 C 
ATOM     25  O   UNK A   1     -12.162   3.296  -4.523  1.00  0.00    -0.275 OA
ATOM     26  N   UNK A   1     -10.796   1.534  -4.127  1.00  0.00    -0.370 N 
ATOM     27  C   UNK A   1     -11.031   2.772   0.007  1.00  0.00    +0.267 C 
ATOM     28  O   UNK A   1     -11.984   2.899   0.797  1.00  0.00    -0.270 OA
ATOM     29  N   UNK A   1      -9.994   3.650   0.025  1.00  0.00    -0.236 N 
ATOM     30  C   UNK A   1      -8.617   3.298  -0.472  1.00  0.00    +0.134 C 
ATOM     31  C   UNK A   1      -8.458   3.737  -1.958  1.00  0.00    -0.019 C 
ATOM     32  C   UNK A   1      -8.203   5.238  -2.248  1.00  0.00    -0.045 C 
ATOM     33  C   UNK A   1      -7.960   5.426  -3.750  1.00  0.00    -0.063 C 
ATOM     34  C   UNK A   1      -9.348   6.148  -1.802  1.00  0.00    -0.063 C 
ATOM     35  C   UNK A   1      -7.387   3.924   0.361  1.00  0.00    +0.266 C 
ATOM     36  O   UNK A   1      -7.532   4.867   1.147  1.00  0.00    -0.270 OA
ATOM     37  N   UNK A   1      -6.218   3.326   0.014  1.00  0.00    -0.239 N 
ATOM     38  C   UNK A   1      -4.945   3.766   0.684  1.00  0.00    +0.124 C 
ATOM     39  C   UNK A   1      -3.637   2.969   0.233  1.00  0.00    +0.263 C 
ATOM     40  O   UNK A   1      -3.680   2.086  -0.617  1.00  0.00    -0.271 OA
ATOM     41  N   UNK A   1      -2.516   3.429   0.839  1.00  0.00    -0.235 N 
ATOM     42  C   UNK A   1      -1.341   2.497   1.127  1.00  0.00    +0.143 C 
ATOM     43  C   UNK A   1      -1.688   1.236   1.970  1.00  0.00    +0.026 C 
ATOM     44  S   UNK A   1      -2.588  -0.311   1.485  1.00  0.00    -0.142 S 
ATOM     45  C   UNK A   1      -0.085   2.286   0.168  1.00  0.00    +0.267 C 
ATOM     46  O   UNK A   1      -0.202   2.258  -1.059  1.00  0.00    -0.270 OA
ATOM     47  N   UNK A   1       1.098   2.221   0.858  1.00  0.00    -0.236 N 
ATOM     48  C   UNK A   1       2.142   1.131   0.578  1.00  0.00    +0.135 C 
ATOM     49  C   UNK A   1       1.637  -0.011  -0.349  1.00  0.00    -0.014 C 
ATOM     50  C   UNK A   1       0.704  -0.983   0.389  1.00  0.00    -0.022 C 
ATOM     51  S   UNK A   1      -0.709  -1.631  -0.502  1.00  0.00    -0.241 S 
ATOM     52  C   UNK A   1      -0.302  -1.634  -2.222  1.00  0.00    -0.036 C 
ATOM     53  C   UNK A   1       3.644   1.635   0.206  1.00  0.00    +0.266 C 
ATOM     54  O   UNK A   1       3.841   2.693  -0.401  1.00  0.00    -0.270 OA
ATOM     55  N   UNK A   1       4.629   0.770   0.631  1.00  0.00    -0.236 N 
ATOM     56  C   UNK A   1       6.081   1.292   0.543  1.00  0.00    +0.135 C 
ATOM     57  C   UNK A   1       6.313   2.349   1.665  1.00  0.00    -0.012 C 
ATOM     58  C   UNK A   1       7.111   3.549   1.147  1.00  0.00    -0.004 C 
ATOM     59  S   UNK A   1       8.098   4.400   2.460  1.00  0.00    -0.165 S 
ATOM     60  C   UNK A   1       9.453   3.183   2.539  1.00  0.00    -0.018 C 
ATOM     61  C   UNK A   1       7.253   0.175   0.695  1.00  0.00    +0.266 C 
ATOM     62  O   UNK A   1       6.996  -0.988   1.022  1.00  0.00    -0.270 OA
ATOM     63  N   UNK A   1       8.505   0.675   0.421  1.00  0.00    -0.236 N 
ATOM     64  C   UNK A   1       9.709  -0.240   0.710  1.00  0.00    +0.138 C 
ATOM     65  C   UNK A   1       9.718  -1.436  -0.288  1.00  0.00    +0.004 C 
ATOM     66  C   UNK A   1      10.083  -2.784   0.312  1.00  0.00    -0.045 C 
ATOM     67  C   UNK A   1      11.414  -3.114   0.581  1.00  0.00    -0.059 C 
ATOM     68  C   UNK A   1      11.743  -4.354   1.135  1.00  0.00    -0.062 C 
ATOM     69  C   UNK A   1      10.740  -5.282   1.413  1.00  0.00    -0.062 C 
ATOM     70  C   UNK A   1       9.407  -4.960   1.157  1.00  0.00    -0.062 C 
ATOM     71  C   UNK A   1       9.081  -3.714   0.618  1.00  0.00    -0.059 C 
ATOM     72  C   UNK A   1      11.141   0.491   0.519  1.00  0.00    +0.267 C 
ATOM     73  O   UNK A   1      11.381   1.170  -0.485  1.00  0.00    -0.270 OA
ATOM     74  N   UNK A   1      12.032   0.202   1.512  1.00  0.00    -0.235 N 
ATOM     75  C   UNK A   1      13.524   0.299   1.166  1.00  0.00    +0.143 C 
ATOM     76  C   UNK A   1      14.072   1.759   1.249  1.00  0.00    +0.060 C 
ATOM     77  C   UNK A   1      15.436   2.096   0.562  1.00  0.00    +0.244 C 
ATOM     78  O   UNK A   1      15.515   2.902  -0.370  1.00  0.00    -0.273 OA
ATOM     79  C   UNK A   1      14.275  -0.564   2.251  1.00  0.00    +0.267 C 
ATOM     80  O   UNK A   1      14.237  -0.329   3.463  1.00  0.00    -0.270 OA
ATOM     81  N   UNK A   1      16.491   1.535   1.177  1.00  0.00    -0.235 N 
ATOM     82  C   UNK A   1      17.809   1.842   0.577  1.00  0.00    +0.159 C 
ATOM     83  C   UNK A   1      18.476   3.033   1.283  1.00  0.00    +0.024 C 
ATOM     84  S   UNK A   1      18.174   4.623   0.428  1.00  0.00    -0.176 S 
ATOM     85  C   UNK A   1      18.694   0.612   0.772  1.00  0.00    +0.329 C 
ATOM     86  O   UNK A   1      19.906   0.590   0.546  1.00  0.00    -0.250 OA
ATOM     87  O   UNK A   1      18.030  -0.486   1.187  1.00  0.00    -0.480 OA
ATOM     88  N   UNK A   1      15.074  -1.519   1.727  1.00  0.00    -0.238 N 
ATOM     89  C   UNK A   1      15.189  -2.725   2.562  1.00  0.00    +0.140 C 
ATOM     90  C   UNK A   1      16.247  -2.683   3.646  1.00  0.00    +0.325 C 
ATOM     91  O   UNK A   1      16.949  -3.646   3.962  1.00  0.00    -0.250 OA
ATOM     92  O   UNK A   1      16.304  -1.521   4.335  1.00  0.00    -0.480 OA
ATOM     93  C   UNK A   1      -4.969  -1.358  -2.845  1.00  0.00    -0.059 C 
ATOM     94  C   UNK A   1      -5.582  -2.479  -2.286  1.00  0.00    -0.058 C 
ATOM     95  C   UNK A   1      -5.052  -3.069  -1.140  1.00  0.00    -0.038 C 
ATOM     96  C   UNK A   1      -5.621  -4.384  -0.653  1.00  0.00    +0.019 C 
ATOM     97  C   UNK A   1      -3.934  -2.442  -0.528  1.00  0.00    -0.053 C 
ATOM     98  C   UNK A   1      -3.311  -1.264  -1.052  1.00  0.00    -0.023 C 
ATOM     99  C   UNK A   1      -2.152  -0.541  -0.287  1.00  0.00    +0.058 C 
ATOM    100  C   UNK A   1      -3.824  -0.762  -2.271  1.00  0.00    -0.046 C 
ATOM    101  C   UNK A   1      -3.281   0.444  -2.993  1.00  0.00    -0.039 C 
ATOM    102  H   UNK A   1     -11.892  -5.536   0.986  1.00  0.00    +0.060 HD
ATOM    103  H   UNK A   1     -11.327  -5.978   3.393  1.00  0.00    +0.025 HD
ATOM    104  H   UNK A   1      -9.826  -5.712   2.498  1.00  0.00    +0.025 HD
ATOM    105  H   UNK A   1     -10.307  -7.350   2.920  1.00  0.00    +0.025 HD
ATOM    106  H   UNK A   1      -9.939  -4.538   0.651  1.00  0.00    +0.067 HD
ATOM    107  H   UNK A   1      -8.537  -3.169  -1.116  1.00  0.00    +0.041 HD
ATOM    108  H   UNK A   1      -8.161  -4.750  -1.815  1.00  0.00    +0.041 HD
ATOM    109  H   UNK A   1     -13.010  -2.405  -1.677  1.00  0.00    +0.066 HD
ATOM    110  H   UNK A   1     -12.066  -1.583   1.128  1.00  0.00    +0.030 HD
ATOM    111  H   UNK A   1     -12.894  -3.060   0.734  1.00  0.00    +0.030 HD
ATOM    112  H   UNK A   1     -14.581  -1.087  -0.438  1.00  0.00    +0.037 HD
ATOM    113  H   UNK A   1     -14.862  -2.120   0.957  1.00  0.00    +0.037 HD
ATOM    114  H   UNK A   1     -12.487   0.542   0.919  1.00  0.00    +0.159 HD
ATOM    115  H   UNK A   1     -13.262   1.559   1.934  1.00  0.00    +0.159 HD
ATOM    116  H   UNK A   1     -10.189   1.527  -1.593  1.00  0.00    +0.066 HD
ATOM    117  H   UNK A   1     -12.179   3.547  -1.971  1.00  0.00    +0.039 HD
ATOM    118  H   UNK A   1     -13.110   2.080  -2.219  1.00  0.00    +0.039 HD
ATOM    119  H   UNK A   1     -11.140   0.640  -3.726  1.00  0.00    +0.159 HD
ATOM    120  H   UNK A   1      -9.946   1.567  -3.560  1.00  0.00    +0.159 HD
ATOM    121  H   UNK A   1      -8.477   2.208  -0.406  1.00  0.00    +0.066 HD
ATOM    122  H   UNK A   1      -9.335   3.431  -2.532  1.00  0.00    +0.030 HD
ATOM    123  H   UNK A   1      -7.617   3.172  -2.383  1.00  0.00    +0.030 HD
ATOM    124  H   UNK A   1      -7.292   5.561  -1.732  1.00  0.00    +0.030 HD
ATOM    125  H   UNK A   1      -8.842   5.141  -4.334  1.00  0.00    +0.023 HD
ATOM    126  H   UNK A   1      -7.727   6.473  -3.979  1.00  0.00    +0.023 HD
ATOM    127  H   UNK A   1      -7.115   4.818  -4.088  1.00  0.00    +0.023 HD
ATOM    128  H   UNK A   1      -9.424   6.185  -0.711  1.00  0.00    +0.023 HD
ATOM    129  H   UNK A   1     -10.306   5.808  -2.207  1.00  0.00    +0.023 HD
ATOM    130  H   UNK A   1      -9.185   7.176  -2.143  1.00  0.00    +0.023 HD
ATOM    131  H   UNK A   1      -5.029   3.640   1.772  1.00  0.00    +0.062 HD
ATOM    132  H   UNK A   1      -4.757   4.828   0.477  1.00  0.00    +0.062 HD
ATOM    133  H   UNK A   1      -0.850   3.124   1.902  1.00  0.00    +0.067 HD
ATOM    134  H   UNK A   1      -2.280   1.589   2.824  1.00  0.00    +0.041 HD
ATOM    135  H   UNK A   1      -0.762   0.873   2.429  1.00  0.00    +0.041 HD
ATOM    136  H   UNK A   1       2.303   0.668   1.568  1.00  0.00    +0.066 HD
ATOM    137  H   UNK A   1       2.498  -0.589  -0.710  1.00  0.00    +0.030 HD
ATOM    138  H   UNK A   1       1.184   0.396  -1.254  1.00  0.00    +0.030 HD
ATOM    139  H   UNK A   1       0.331  -0.567   1.322  1.00  0.00    +0.036 HD
ATOM    140  H   UNK A   1       1.281  -1.872   0.672  1.00  0.00    +0.036 HD
ATOM    141  H   UNK A   1      -1.008  -2.876  -0.070  1.00  0.00    +0.084 HD
ATOM    142  H   UNK A   1      -0.355  -0.618  -2.611  1.00  0.00    +0.033 HD
ATOM    143  H   UNK A   1      -1.015  -2.278  -2.740  1.00  0.00    +0.033 HD
ATOM    144  H   UNK A   1       0.706  -2.036  -2.339  1.00  0.00    +0.033 HD
ATOM    145  H   UNK A   1       6.231   1.736  -0.453  1.00  0.00    +0.066 HD
ATOM    146  H   UNK A   1       6.808   1.870   2.518  1.00  0.00    +0.030 HD
ATOM    147  H   UNK A   1       5.364   2.733   2.060  1.00  0.00    +0.030 HD
ATOM    148  H   UNK A   1       6.420   4.292   0.734  1.00  0.00    +0.038 HD
ATOM    149  H   UNK A   1       7.797   3.288   0.336  1.00  0.00    +0.038 HD
ATOM    150  H   UNK A   1       9.085   2.198   2.832  1.00  0.00    +0.034 HD
ATOM    151  H   UNK A   1       9.965   3.132   1.575  1.00  0.00    +0.034 HD
ATOM    152  H   UNK A   1      10.173   3.513   3.293  1.00  0.00    +0.034 HD
ATOM    153  H   UNK A   1       9.647  -0.596   1.749  1.00  0.00    +0.066 HD
ATOM    154  H   UNK A   1       8.749  -1.548  -0.791  1.00  0.00    +0.034 HD
ATOM    155  H   UNK A   1      10.417  -1.247  -1.114  1.00  0.00    +0.034 HD
ATOM    156  H   UNK A   1      12.192  -2.367   0.414  1.00  0.00    +0.063 HD
ATOM    157  H   UNK A   1      12.782  -4.550   1.378  1.00  0.00    +0.062 HD
ATOM    158  H   UNK A   1      10.994  -6.231   1.867  1.00  0.00    +0.062 HD
ATOM    159  H   UNK A   1       8.606  -5.646   1.408  1.00  0.00    +0.062 HD
ATOM    160  H   UNK A   1       8.041  -3.425   0.471  1.00  0.00    +0.063 HD
ATOM    161  H   UNK A   1      13.725  -0.116   0.169  1.00  0.00    +0.066 HD
ATOM    162  H   UNK A   1      13.344   2.433   0.776  1.00  0.00    +0.040 HD
ATOM    163  H   UNK A   1      14.139   2.091   2.295  1.00  0.00    +0.040 HD
ATOM    164  H   UNK A   1      17.775   1.974  -0.512  1.00  0.00    +0.068 HD
ATOM    165  H   UNK A   1      19.564   2.927   1.349  1.00  0.00    +0.041 HD
ATOM    166  H   UNK A   1      18.105   3.143   2.310  1.00  0.00    +0.041 HD
ATOM    167  H   UNK A   1      16.895   4.299   0.111  1.00  0.00    +0.102 HD
ATOM    168  H   UNK A   1      17.059  -0.216   1.288  1.00  0.00    +0.296 HD
ATOM    169  H   UNK A   1      14.242  -3.010   3.040  1.00  0.00    +0.064 HD
ATOM    170  H   UNK A   1      15.462  -3.569   1.914  1.00  0.00    +0.064 HD
ATOM    171  H   UNK A   1      15.599  -0.937   3.916  1.00  0.00    +0.296 HD
ATOM    172  H   UNK A   1      -5.423  -0.895  -3.717  1.00  0.00    +0.063 HD
ATOM    173  H   UNK A   1      -6.480  -2.877  -2.749  1.00  0.00    +0.063 HD
ATOM    174  H   UNK A   1      -5.776  -5.050  -1.510  1.00  0.00    +0.043 HD
ATOM    175  H   UNK A   1      -4.845  -4.878  -0.057  1.00  0.00    +0.043 HD
ATOM    176  H   UNK A   1      -3.548  -2.850   0.404  1.00  0.00    +0.063 HD
ATOM    177  H   UNK A   1      -1.898   0.413  -0.729  1.00  0.00    +0.057 HD
ATOM    178  H   UNK A   1      -3.979   1.283  -2.915  1.00  0.00    +0.028 HD
ATOM    179  H   UNK A   1      -2.299   0.765  -2.651  1.00  0.00    +0.028 HD
ATOM    180  H   UNK A   1      -3.163   0.204  -4.056  1.00  0.00    +0.028 HD
ENDROOT
TORSDOF 0