MODEL 1
REMARK VINA RESULT:       1.9      0.000      0.000
REMARK  Generated by RDKit with Gasteiger charges
REMARK  --------------------------------------------------
ROOT
ATOM      1  N   UNK A   1     -22.007  23.194  -2.236  1.00  0.00    -0.131 N 
ATOM      2  C   UNK A   1     -21.610  21.768  -2.162  1.00  0.00    +0.121 C 
ATOM      3  C   UNK A   1     -22.403  21.033  -3.244  1.00  0.00    -0.037 C 
ATOM      4  C   UNK A   1     -20.065  21.680  -2.215  1.00  0.00    +0.262 C 
ATOM      5  O   UNK A   1     -19.376  22.447  -1.536  1.00  0.00    -0.271 OA
ATOM      6  N   UNK A   1     -19.632  20.778  -3.102  1.00  0.00    -0.236 N 
ATOM      7  C   UNK A   1     -18.992  19.520  -2.551  1.00  0.00    +0.143 C 
ATOM      8  C   UNK A   1     -17.501  19.689  -2.091  1.00  0.00    +0.025 C 
ATOM      9  S   UNK A   1     -16.306  20.416  -3.373  1.00  0.00    -0.154 S 
ATOM     10  C   UNK A   1     -19.896  18.750  -1.488  1.00  0.00    +0.267 C 
ATOM     11  O   UNK A   1     -20.822  19.293  -0.874  1.00  0.00    -0.270 OA
ATOM     12  N   UNK A   1     -19.669  17.416  -1.459  1.00  0.00    -0.236 N 
ATOM     13  C   UNK A   1     -19.056  16.892  -0.188  1.00  0.00    +0.135 C 
ATOM     14  C   UNK A   1     -19.976  17.056   1.050  1.00  0.00    -0.013 C 
ATOM     15  C   UNK A   1     -19.275  16.755   2.385  1.00  0.00    +0.029 C 
ATOM     16  C   UNK A   1     -19.804  15.507   3.073  1.00  0.00    +0.217 C 
ATOM     17  O   UNK A   1     -20.640  15.564   3.984  1.00  0.00    -0.275 OA
ATOM     18  N   UNK A   1     -19.316  14.308   2.628  1.00  0.00    -0.370 N 
ATOM     19  C   UNK A   1     -18.747  15.351  -0.310  1.00  0.00    +0.266 C 
ATOM     20  O   UNK A   1     -19.601  14.534  -0.667  1.00  0.00    -0.270 OA
ATOM     21  N   UNK A   1     -17.545  15.070   0.230  1.00  0.00    -0.236 N 
ATOM     22  C   UNK A   1     -17.028  13.663   0.133  1.00  0.00    +0.138 C 
ATOM     23  C   UNK A   1     -16.533  13.335  -1.295  1.00  0.00    +0.004 C 
ATOM     24  C   UNK A   1     -17.022  11.983  -1.801  1.00  0.00    -0.045 C 
ATOM     25  C   UNK A   1     -16.218  10.841  -1.692  1.00  0.00    -0.055 C 
ATOM     26  C   UNK A   1     -16.662   9.613  -2.184  1.00  0.00    -0.020 C 
ATOM     27  C   UNK A   1     -17.921   9.528  -2.772  1.00  0.00    +0.115 C 
ATOM     28  O   UNK A   1     -18.342   8.319  -3.268  1.00  0.00    -0.508 OA
ATOM     29  C   UNK A   1     -18.740  10.652  -2.872  1.00  0.00    -0.020 C 
ATOM     30  C   UNK A   1     -18.291  11.876  -2.381  1.00  0.00    -0.055 C 
ATOM     31  C   UNK A   1     -16.006  13.457   1.334  1.00  0.00    +0.267 C 
ATOM     32  O   UNK A   1     -16.447  13.519   2.496  1.00  0.00    -0.270 OA
ATOM     33  N   UNK A   1     -14.751  13.043   1.039  1.00  0.00    -0.236 N 
ATOM     34  C   UNK A   1     -13.777  14.140   0.613  1.00  0.00    +0.138 C 
ATOM     35  C   UNK A   1     -13.670  15.301   1.640  1.00  0.00    +0.004 C 
ATOM     36  C   UNK A   1     -12.778  15.086   2.849  1.00  0.00    -0.045 C 
ATOM     37  C   UNK A   1     -13.241  14.434   3.998  1.00  0.00    -0.055 C 
ATOM     38  C   UNK A   1     -12.387  14.220   5.086  1.00  0.00    -0.020 C 
ATOM     39  C   UNK A   1     -11.065  14.642   5.008  1.00  0.00    +0.115 C 
ATOM     40  O   UNK A   1     -10.210  14.366   6.045  1.00  0.00    -0.508 OA
ATOM     41  C   UNK A   1     -10.588  15.299   3.875  1.00  0.00    -0.020 C 
ATOM     42  C   UNK A   1     -11.447  15.519   2.803  1.00  0.00    -0.055 C 
ATOM     43  C   UNK A   1     -12.315  13.611   0.237  1.00  0.00    +0.267 C 
ATOM     44  O   UNK A   1     -11.856  12.567   0.715  1.00  0.00    -0.270 OA
ATOM     45  N   UNK A   1     -11.685  14.461  -0.623  1.00  0.00    -0.236 N 
ATOM     46  C   UNK A   1     -10.167  14.392  -0.699  1.00  0.00    +0.138 C 
ATOM     47  C   UNK A   1      -9.698  13.122  -1.460  1.00  0.00    +0.004 C 
ATOM     48  C   UNK A   1      -8.282  12.685  -1.097  1.00  0.00    -0.045 C 
ATOM     49  C   UNK A   1      -8.019  11.971   0.082  1.00  0.00    -0.055 C 
ATOM     50  C   UNK A   1      -6.700  11.712   0.472  1.00  0.00    -0.020 C 
ATOM     51  C   UNK A   1      -5.650  12.197  -0.303  1.00  0.00    +0.115 C 
ATOM     52  O   UNK A   1      -4.360  12.072   0.144  1.00  0.00    -0.508 OA
ATOM     53  C   UNK A   1      -5.895  12.881  -1.489  1.00  0.00    -0.020 C 
ATOM     54  C   UNK A   1      -7.208  13.104  -1.887  1.00  0.00    -0.055 C 
ATOM     55  C   UNK A   1      -9.511  15.786  -1.235  1.00  0.00    +0.267 C 
ATOM     56  O   UNK A   1      -9.481  16.761  -0.475  1.00  0.00    -0.270 OA
ATOM     57  N   UNK A   1      -9.023  15.723  -2.497  1.00  0.00    -0.235 N 
ATOM     58  C   UNK A   1      -8.321  16.899  -3.174  1.00  0.00    +0.143 C 
ATOM     59  C   UNK A   1      -9.040  18.302  -2.972  1.00  0.00    +0.027 C 
ATOM     60  S   UNK A   1      -9.392  19.268  -4.580  1.00  0.00    -0.140 S 
ATOM     61  C   UNK A   1      -6.716  17.001  -3.041  1.00  0.00    +0.267 C 
ATOM     62  O   UNK A   1      -6.200  17.990  -2.515  1.00  0.00    -0.270 OA
ATOM     63  N   UNK A   1      -6.025  15.970  -3.606  1.00  0.00    -0.233 N 
ATOM     64  C   UNK A   1      -4.821  16.291  -4.532  1.00  0.00    +0.160 C 
ATOM     65  C   UNK A   1      -5.352  17.087  -5.771  1.00  0.00    +0.083 C 
ATOM     66  C   UNK A   1      -4.449  17.206  -6.993  1.00  0.00    -0.036 C 
ATOM     67  O   UNK A   1      -6.506  16.331  -6.267  1.00  0.00    -0.391 OA
ATOM     68  C   UNK A   1      -3.400  16.656  -3.905  1.00  0.00    +0.269 C 
ATOM     69  O   UNK A   1      -3.097  16.307  -2.757  1.00  0.00    -0.270 OA
ATOM     70  N   UNK A   1      -2.485  17.085  -4.818  1.00  0.00    -0.236 N 
ATOM     71  C   UNK A   1      -1.673  18.305  -4.427  1.00  0.00    +0.138 C 
ATOM     72  C   UNK A   1      -0.448  17.924  -3.547  1.00  0.00    +0.004 C 
ATOM     73  C   UNK A   1      -0.596  18.105  -2.042  1.00  0.00    -0.045 C 
ATOM     74  C   UNK A   1      -0.280  17.055  -1.166  1.00  0.00    -0.055 C 
ATOM     75  C   UNK A   1      -0.498  17.181   0.207  1.00  0.00    -0.020 C 
ATOM     76  C   UNK A   1      -1.053  18.357   0.692  1.00  0.00    +0.115 C 
ATOM     77  O   UNK A   1      -1.451  18.407   2.001  1.00  0.00    -0.508 OA
ATOM     78  C   UNK A   1      -1.334  19.429  -0.148  1.00  0.00    -0.020 C 
ATOM     79  C   UNK A   1      -1.087  19.306  -1.515  1.00  0.00    -0.055 C 
ATOM     80  C   UNK A   1      -1.055  19.048  -5.702  1.00  0.00    +0.267 C 
ATOM     81  O   UNK A   1      -0.501  18.427  -6.618  1.00  0.00    -0.270 OA
ATOM     82  N   UNK A   1      -0.963  20.396  -5.537  1.00  0.00    -0.236 N 
ATOM     83  C   UNK A   1      -1.984  21.190  -6.332  1.00  0.00    +0.131 C 
ATOM     84  C   UNK A   1      -3.369  21.023  -5.685  1.00  0.00    -0.033 C 
ATOM     85  C   UNK A   1      -1.613  22.741  -6.463  1.00  0.00    +0.266 C 
ATOM     86  O   UNK A   1      -0.499  23.190  -6.163  1.00  0.00    -0.270 OA
ATOM     87  N   UNK A   1      -2.549  23.472  -7.130  1.00  0.00    -0.236 N 
ATOM     88  C   UNK A   1      -3.483  24.279  -6.252  1.00  0.00    +0.136 C 
ATOM     89  C   UNK A   1      -2.998  25.757  -6.065  1.00  0.00    -0.015 C 
ATOM     90  C   UNK A   1      -2.654  26.466  -7.378  1.00  0.00    -0.060 C 
ATOM     91  C   UNK A   1      -1.829  25.879  -5.085  1.00  0.00    -0.060 C 
ATOM     92  C   UNK A   1      -4.988  24.340  -6.803  1.00  0.00    +0.267 C 
ATOM     93  O   UNK A   1      -5.243  24.362  -8.011  1.00  0.00    -0.270 OA
ATOM     94  N   UNK A   1      -5.869  24.493  -5.780  1.00  0.00    -0.235 N 
ATOM     95  C   UNK A   1      -7.348  24.273  -6.070  1.00  0.00    +0.143 C 
ATOM     96  C   UNK A   1      -7.886  23.158  -5.066  1.00  0.00    +0.027 C 
ATOM     97  S   UNK A   1      -9.486  22.221  -5.488  1.00  0.00    -0.140 S 
ATOM     98  C   UNK A   1      -8.001  25.725  -5.986  1.00  0.00    +0.267 C 
ATOM     99  O   UNK A   1      -7.440  26.763  -6.353  1.00  0.00    -0.270 OA
ATOM    100  N   UNK A   1      -9.255  25.771  -5.505  1.00  0.00    -0.238 N 
ATOM    101  C   UNK A   1     -10.161  26.628  -6.289  1.00  0.00    +0.140 C 
ATOM    102  C   UNK A   1     -10.162  28.099  -5.916  1.00  0.00    +0.325 C 
ATOM    103  O   UNK A   1     -11.111  28.861  -6.110  1.00  0.00    -0.250 OA
ATOM    104  O   UNK A   1      -8.992  28.563  -5.418  1.00  0.00    -0.480 OA
ATOM    105  C   UNK A   1     -12.538  22.752  -1.953  1.00  0.00    -0.059 C 
ATOM    106  C   UNK A   1     -13.624  21.885  -2.091  1.00  0.00    -0.058 C 
ATOM    107  C   UNK A   1     -13.500  20.701  -2.818  1.00  0.00    -0.038 C 
ATOM    108  C   UNK A   1     -14.670  19.702  -2.816  1.00  0.00    +0.019 C 
ATOM    109  C   UNK A   1     -12.229  20.420  -3.416  1.00  0.00    -0.053 C 
ATOM    110  C   UNK A   1     -11.091  21.287  -3.294  1.00  0.00    -0.022 C 
ATOM    111  C   UNK A   1      -9.693  21.007  -3.959  1.00  0.00    +0.076 C 
ATOM    112  C   UNK A   1     -11.280  22.464  -2.519  1.00  0.00    -0.046 C 
ATOM    113  C   UNK A   1     -10.189  23.479  -2.287  1.00  0.00    -0.039 C 
ATOM    114  H   UNK A   1     -21.927  21.406  -1.176  1.00  0.00    +0.060 HD
ATOM    115  H   UNK A   1     -23.479  21.192  -3.116  1.00  0.00    +0.025 HD
ATOM    116  H   UNK A   1     -22.229  19.953  -3.206  1.00  0.00    +0.025 HD
ATOM    117  H   UNK A   1     -22.132  21.384  -4.248  1.00  0.00    +0.025 HD
ATOM    118  H   UNK A   1     -18.951  18.833  -3.414  1.00  0.00    +0.067 HD
ATOM    119  H   UNK A   1     -17.102  18.706  -1.818  1.00  0.00    +0.041 HD
ATOM    120  H   UNK A   1     -17.448  20.329  -1.203  1.00  0.00    +0.041 HD
ATOM    121  H   UNK A   1     -18.112  17.429  -0.000  1.00  0.00    +0.066 HD
ATOM    122  H   UNK A   1     -20.877  16.441   0.937  1.00  0.00    +0.030 HD
ATOM    123  H   UNK A   1     -20.322  18.093   1.116  1.00  0.00    +0.030 HD
ATOM    124  H   UNK A   1     -19.459  17.591   3.074  1.00  0.00    +0.037 HD
ATOM    125  H   UNK A   1     -18.187  16.689   2.293  1.00  0.00    +0.037 HD
ATOM    126  H   UNK A   1     -18.275  14.295   2.606  1.00  0.00    +0.159 HD
ATOM    127  H   UNK A   1     -19.367  14.270   1.599  1.00  0.00    +0.159 HD
ATOM    128  H   UNK A   1     -17.836  12.955   0.385  1.00  0.00    +0.066 HD
ATOM    129  H   UNK A   1     -16.879  14.091  -2.014  1.00  0.00    +0.034 HD
ATOM    130  H   UNK A   1     -15.446  13.352  -1.400  1.00  0.00    +0.034 HD
ATOM    131  H   UNK A   1     -15.236  10.945  -1.223  1.00  0.00    +0.063 HD
ATOM    132  H   UNK A   1     -16.015   8.748  -2.101  1.00  0.00    +0.066 HD
ATOM    133  H   UNK A   1     -19.129   8.540  -3.787  1.00  0.00    +0.293 HD
ATOM    134  H   UNK A   1     -19.731  10.614  -3.306  1.00  0.00    +0.066 HD
ATOM    135  H   UNK A   1     -18.913  12.771  -2.426  1.00  0.00    +0.063 HD
ATOM    136  H   UNK A   1     -14.168  14.596  -0.308  1.00  0.00    +0.066 HD
ATOM    137  H   UNK A   1     -14.663  15.611   1.994  1.00  0.00    +0.034 HD
ATOM    138  H   UNK A   1     -13.292  16.184   1.107  1.00  0.00    +0.034 HD
ATOM    139  H   UNK A   1     -14.261  14.057   3.995  1.00  0.00    +0.063 HD
ATOM    140  H   UNK A   1     -12.754  13.683   5.949  1.00  0.00    +0.066 HD
ATOM    141  H   UNK A   1      -9.333  14.466   5.631  1.00  0.00    +0.293 HD
ATOM    142  H   UNK A   1      -9.558  15.615   3.759  1.00  0.00    +0.066 HD
ATOM    143  H   UNK A   1     -11.065  15.972   1.882  1.00  0.00    +0.063 HD
ATOM    144  H   UNK A   1      -9.771  14.324   0.326  1.00  0.00    +0.066 HD
ATOM    145  H   UNK A   1      -9.779  13.253  -2.549  1.00  0.00    +0.034 HD
ATOM    146  H   UNK A   1     -10.351  12.267  -1.246  1.00  0.00    +0.034 HD
ATOM    147  H   UNK A   1      -8.861  11.706   0.718  1.00  0.00    +0.063 HD
ATOM    148  H   UNK A   1      -6.507  11.217   1.414  1.00  0.00    +0.066 HD
ATOM    149  H   UNK A   1      -3.923  12.839  -0.284  1.00  0.00    +0.293 HD
ATOM    150  H   UNK A   1      -5.109  13.338  -2.089  1.00  0.00    +0.066 HD
ATOM    151  H   UNK A   1      -7.393  13.726  -2.766  1.00  0.00    +0.063 HD
ATOM    152  H   UNK A   1      -8.463  16.688  -4.244  1.00  0.00    +0.067 HD
ATOM    153  H   UNK A   1      -8.454  18.952  -2.319  1.00  0.00    +0.041 HD
ATOM    154  H   UNK A   1     -10.032  18.165  -2.532  1.00  0.00    +0.041 HD
ATOM    155  H   UNK A   1      -4.589  15.294  -4.951  1.00  0.00    +0.069 HD
ATOM    156  H   UNK A   1      -5.716  18.079  -5.475  1.00  0.00    +0.063 HD
ATOM    157  H   UNK A   1      -5.038  17.490  -7.873  1.00  0.00    +0.026 HD
ATOM    158  H   UNK A   1      -3.979  16.246  -7.232  1.00  0.00    +0.026 HD
ATOM    159  H   UNK A   1      -3.677  17.967  -6.871  1.00  0.00    +0.026 HD
ATOM    160  H   UNK A   1      -6.898  16.067  -5.396  1.00  0.00    +0.211 HD
ATOM    161  H   UNK A   1      -2.325  19.024  -3.915  1.00  0.00    +0.066 HD
ATOM    162  H   UNK A   1      -0.154  16.887  -3.759  1.00  0.00    +0.034 HD
ATOM    163  H   UNK A   1       0.430  18.527  -3.820  1.00  0.00    +0.034 HD
ATOM    164  H   UNK A   1       0.028  16.101  -1.587  1.00  0.00    +0.063 HD
ATOM    165  H   UNK A   1      -0.347  16.332   0.857  1.00  0.00    +0.066 HD
ATOM    166  H   UNK A   1      -2.416  18.571   1.896  1.00  0.00    +0.293 HD
ATOM    167  H   UNK A   1      -1.817  20.330   0.215  1.00  0.00    +0.066 HD
ATOM    168  H   UNK A   1      -1.376  20.107  -2.199  1.00  0.00    +0.063 HD
ATOM    169  H   UNK A   1      -2.031  20.812  -7.364  1.00  0.00    +0.065 HD
ATOM    170  H   UNK A   1      -3.659  19.975  -5.588  1.00  0.00    +0.026 HD
ATOM    171  H   UNK A   1      -3.389  21.466  -4.683  1.00  0.00    +0.026 HD
ATOM    172  H   UNK A   1      -4.156  21.498  -6.277  1.00  0.00    +0.026 HD
ATOM    173  H   UNK A   1      -3.549  23.819  -5.254  1.00  0.00    +0.066 HD
ATOM    174  H   UNK A   1      -3.826  26.321  -5.612  1.00  0.00    +0.032 HD
ATOM    175  H   UNK A   1      -2.422  27.522  -7.194  1.00  0.00    +0.023 HD
ATOM    176  H   UNK A   1      -3.491  26.435  -8.081  1.00  0.00    +0.023 HD
ATOM    177  H   UNK A   1      -1.780  26.021  -7.864  1.00  0.00    +0.023 HD
ATOM    178  H   UNK A   1      -0.883  25.568  -5.535  1.00  0.00    +0.023 HD
ATOM    179  H   UNK A   1      -2.003  25.284  -4.182  1.00  0.00    +0.023 HD
ATOM    180  H   UNK A   1      -1.708  26.924  -4.771  1.00  0.00    +0.023 HD
ATOM    181  H   UNK A   1      -7.524  23.912  -7.092  1.00  0.00    +0.067 HD
ATOM    182  H   UNK A   1      -8.016  23.604  -4.076  1.00  0.00    +0.041 HD
ATOM    183  H   UNK A   1      -7.128  22.371  -4.979  1.00  0.00    +0.041 HD
ATOM    184  H   UNK A   1     -11.188  26.276  -6.134  1.00  0.00    +0.064 HD
ATOM    185  H   UNK A   1      -9.969  26.569  -7.370  1.00  0.00    +0.064 HD
ATOM    186  H   UNK A   1      -8.371  27.772  -5.499  1.00  0.00    +0.296 HD
ATOM    187  H   UNK A   1     -12.677  23.662  -1.379  1.00  0.00    +0.063 HD
ATOM    188  H   UNK A   1     -14.564  22.127  -1.604  1.00  0.00    +0.063 HD
ATOM    189  H   UNK A   1     -14.442  18.868  -3.489  1.00  0.00    +0.043 HD
ATOM    190  H   UNK A   1     -14.775  19.302  -1.803  1.00  0.00    +0.043 HD
ATOM    191  H   UNK A   1     -12.117  19.481  -3.958  1.00  0.00    +0.063 HD
ATOM    192  H   UNK A   1      -8.886  21.227  -3.258  1.00  0.00    +0.058 HD
ATOM    193  H   UNK A   1      -9.225  23.004  -2.097  1.00  0.00    +0.028 HD
ATOM    194  H   UNK A   1     -10.121  24.159  -3.139  1.00  0.00    +0.028 HD
ATOM    195  H   UNK A   1     -10.401  24.086  -1.400  1.00  0.00    +0.028 HD
ENDROOT
TORSDOF 0
ENDMDL
