MODEL 1
REMARK VINA RESULT:      -6.4      0.000      0.000
REMARK  Generated by RDKit with Gasteiger charges
REMARK  --------------------------------------------------
ROOT
ATOM      1  N   UNK A   1     -22.163  15.182   2.892  1.00  0.00    -0.131 N 
ATOM      2  C   UNK A   1     -20.718  15.188   3.234  1.00  0.00    +0.121 C 
ATOM      3  C   UNK A   1     -19.971  15.284   1.903  1.00  0.00    -0.037 C 
ATOM      4  C   UNK A   1     -20.416  16.424   4.108  1.00  0.00    +0.262 C 
ATOM      5  O   UNK A   1     -21.149  17.422   4.005  1.00  0.00    -0.271 OA
ATOM      6  N   UNK A   1     -19.309  16.420   4.865  1.00  0.00    -0.236 N 
ATOM      7  C   UNK A   1     -18.543  15.137   5.130  1.00  0.00    +0.143 C 
ATOM      8  C   UNK A   1     -16.999  15.328   5.168  1.00  0.00    +0.025 C 
ATOM      9  S   UNK A   1     -16.204  15.459   3.452  1.00  0.00    -0.154 S 
ATOM     10  C   UNK A   1     -19.185  14.375   6.363  1.00  0.00    +0.267 C 
ATOM     11  O   UNK A   1     -20.124  13.591   6.111  1.00  0.00    -0.270 OA
ATOM     12  N   UNK A   1     -18.817  14.731   7.616  1.00  0.00    -0.236 N 
ATOM     13  C   UNK A   1     -17.592  14.041   8.188  1.00  0.00    +0.131 C 
ATOM     14  C   UNK A   1     -16.640  15.165   8.672  1.00  0.00    -0.033 C 
ATOM     15  C   UNK A   1     -17.836  13.031   9.397  1.00  0.00    +0.266 C 
ATOM     16  O   UNK A   1     -18.953  12.778   9.870  1.00  0.00    -0.270 OA
ATOM     17  N   UNK A   1     -16.687  12.579   9.951  1.00  0.00    -0.236 N 
ATOM     18  C   UNK A   1     -16.124  11.226   9.584  1.00  0.00    +0.138 C 
ATOM     19  C   UNK A   1     -17.029  10.197   8.854  1.00  0.00    +0.006 C 
ATOM     20  C   UNK A   1     -17.511  10.408   7.442  1.00  0.00    -0.020 C 
ATOM     21  C   UNK A   1     -18.709  11.001   7.079  1.00  0.00    +0.005 C 
ATOM     22  N   UNK A   1     -18.705  11.162   5.722  1.00  0.00    -0.361 N 
ATOM     23  C   UNK A   1     -17.696  10.434   5.143  1.00  0.00    +0.046 C 
ATOM     24  C   UNK A   1     -17.366  10.244   3.796  1.00  0.00    -0.038 C 
ATOM     25  C   UNK A   1     -16.169   9.571   3.518  1.00  0.00    -0.060 C 
ATOM     26  C   UNK A   1     -15.345   9.106   4.543  1.00  0.00    -0.062 C 
ATOM     27  C   UNK A   1     -15.715   9.303   5.881  1.00  0.00    -0.053 C 
ATOM     28  C   UNK A   1     -16.899   9.988   6.205  1.00  0.00    +0.003 C 
ATOM     29  C   UNK A   1     -14.556  11.262   9.241  1.00  0.00    +0.267 C 
ATOM     30  O   UNK A   1     -13.842  12.204   9.613  1.00  0.00    -0.270 OA
ATOM     31  N   UNK A   1     -14.090  10.114   8.676  1.00  0.00    -0.236 N 
ATOM     32  C   UNK A   1     -12.569  10.041   8.504  1.00  0.00    +0.134 C 
ATOM     33  C   UNK A   1     -11.960   9.764   9.920  1.00  0.00    -0.020 C 
ATOM     34  C   UNK A   1     -11.560   8.313  10.212  1.00  0.00    -0.033 C 
ATOM     35  C   UNK A   1     -11.498   8.055  11.723  1.00  0.00    +0.018 C 
ATOM     36  N   UNK A   1     -10.484   8.887  12.417  1.00  0.00    -0.357 N 
ATOM     37  C   UNK A   1      -9.356   8.282  12.862  1.00  0.00    +0.185 C 
ATOM     38  N   UNK A   1      -9.323   7.586  13.950  1.00  0.00    -0.270 N 
ATOM     39  N   UNK A   1      -8.322   8.349  11.996  1.00  0.00    -0.370 N 
ATOM     40  C   UNK A   1     -12.063   8.981   7.421  1.00  0.00    +0.266 C 
ATOM     41  O   UNK A   1     -12.786   8.069   7.009  1.00  0.00    -0.270 OA
ATOM     42  N   UNK A   1     -10.722   9.022   7.196  1.00  0.00    -0.236 N 
ATOM     43  C   UNK A   1     -10.222   9.883   6.036  1.00  0.00    +0.136 C 
ATOM     44  C   UNK A   1      -9.041  10.780   6.617  1.00  0.00    -0.015 C 
ATOM     45  C   UNK A   1      -9.584  11.846   7.579  1.00  0.00    -0.060 C 
ATOM     46  C   UNK A   1      -8.155  11.515   5.593  1.00  0.00    -0.060 C 
ATOM     47  C   UNK A   1      -9.738   9.068   4.712  1.00  0.00    +0.267 C 
ATOM     48  O   UNK A   1      -9.446   7.869   4.711  1.00  0.00    -0.270 OA
ATOM     49  N   UNK A   1      -9.684   9.934   3.667  1.00  0.00    -0.235 N 
ATOM     50  C   UNK A   1      -9.008   9.726   2.317  1.00  0.00    +0.143 C 
ATOM     51  C   UNK A   1      -9.002  11.175   1.636  1.00  0.00    +0.027 C 
ATOM     52  S   UNK A   1     -10.650  11.878   1.027  1.00  0.00    -0.140 S 
ATOM     53  C   UNK A   1      -7.535   9.069   2.205  1.00  0.00    +0.267 C 
ATOM     54  O   UNK A   1      -7.002   8.426   3.109  1.00  0.00    -0.270 OA
ATOM     55  N   UNK A   1      -6.917   9.300   1.016  1.00  0.00    -0.236 N 
ATOM     56  C   UNK A   1      -6.661   8.144   0.099  1.00  0.00    +0.131 C 
ATOM     57  C   UNK A   1      -7.911   7.949  -0.806  1.00  0.00    -0.033 C 
ATOM     58  C   UNK A   1      -5.336   8.257  -0.791  1.00  0.00    +0.266 C 
ATOM     59  O   UNK A   1      -4.318   7.597  -0.472  1.00  0.00    -0.271 OA
ATOM     60  N   UNK A   1      -5.490   8.932  -1.956  1.00  0.00    -0.239 N 
ATOM     61  C   UNK A   1      -4.222   9.318  -2.668  1.00  0.00    +0.124 C 
ATOM     62  C   UNK A   1      -4.354   9.767  -4.165  1.00  0.00    +0.263 C 
ATOM     63  O   UNK A   1      -4.839   9.034  -5.041  1.00  0.00    -0.271 OA
ATOM     64  N   UNK A   1      -3.632  10.886  -4.459  1.00  0.00    -0.240 N 
ATOM     65  C   UNK A   1      -4.503  12.034  -4.907  1.00  0.00    +0.124 C 
ATOM     66  C   UNK A   1      -3.749  13.354  -5.321  1.00  0.00    +0.263 C 
ATOM     67  O   UNK A   1      -2.551  13.369  -5.630  1.00  0.00    -0.271 OA
ATOM     68  N   UNK A   1      -4.570  14.433  -5.467  1.00  0.00    -0.236 N 
ATOM     69  C   UNK A   1      -4.758  15.254  -4.193  1.00  0.00    +0.136 C 
ATOM     70  C   UNK A   1      -3.881  16.555  -4.231  1.00  0.00    -0.015 C 
ATOM     71  C   UNK A   1      -3.944  17.313  -2.898  1.00  0.00    -0.060 C 
ATOM     72  C   UNK A   1      -2.396  16.279  -4.526  1.00  0.00    -0.060 C 
ATOM     73  C   UNK A   1      -6.284  15.720  -3.983  1.00  0.00    +0.267 C 
ATOM     74  O   UNK A   1      -6.915  16.293  -4.879  1.00  0.00    -0.270 OA
ATOM     75  N   UNK A   1      -6.677  15.453  -2.724  1.00  0.00    -0.235 N 
ATOM     76  C   UNK A   1      -8.089  15.754  -2.289  1.00  0.00    +0.143 C 
ATOM     77  C   UNK A   1      -8.460  14.807  -1.075  1.00  0.00    +0.027 C 
ATOM     78  S   UNK A   1     -10.284  14.343  -0.834  1.00  0.00    -0.140 S 
ATOM     79  C   UNK A   1      -8.302  17.269  -1.967  1.00  0.00    +0.267 C 
ATOM     80  O   UNK A   1      -9.129  17.972  -2.563  1.00  0.00    -0.270 OA
ATOM     81  N   UNK A   1      -7.502  17.768  -1.008  1.00  0.00    -0.238 N 
ATOM     82  C   UNK A   1      -7.780  19.125  -0.552  1.00  0.00    +0.140 C 
ATOM     83  C   UNK A   1      -7.334  20.253  -1.446  1.00  0.00    +0.325 C 
ATOM     84  O   UNK A   1      -6.768  21.272  -1.027  1.00  0.00    -0.250 OA
ATOM     85  O   UNK A   1      -7.728  20.139  -2.741  1.00  0.00    -0.480 OA
ATOM     86  C   UNK A   1     -11.731  16.618   3.109  1.00  0.00    -0.059 C 
ATOM     87  C   UNK A   1     -12.995  16.152   3.469  1.00  0.00    -0.058 C 
ATOM     88  C   UNK A   1     -13.428  14.882   3.065  1.00  0.00    -0.038 C 
ATOM     89  C   UNK A   1     -14.730  14.309   3.650  1.00  0.00    +0.019 C 
ATOM     90  C   UNK A   1     -12.565  14.137   2.215  1.00  0.00    -0.053 C 
ATOM     91  C   UNK A   1     -11.256  14.582   1.836  1.00  0.00    -0.022 C 
ATOM     92  C   UNK A   1     -10.265  13.713   0.978  1.00  0.00    +0.076 C 
ATOM     93  C   UNK A   1     -10.837  15.836   2.352  1.00  0.00    -0.046 C 
ATOM     94  C   UNK A   1      -9.469  16.401   2.086  1.00  0.00    -0.039 C 
ATOM     95  H   UNK A   1     -20.516  14.240   3.731  1.00  0.00    +0.060 HD
ATOM     96  H   UNK A   1     -20.274  14.452   1.257  1.00  0.00    +0.025 HD
ATOM     97  H   UNK A   1     -20.198  16.227   1.380  1.00  0.00    +0.025 HD
ATOM     98  H   UNK A   1     -18.884  15.225   2.026  1.00  0.00    +0.025 HD
ATOM     99  H   UNK A   1     -18.643  14.403   4.325  1.00  0.00    +0.067 HD
ATOM    100  H   UNK A   1     -16.522  14.483   5.659  1.00  0.00    +0.041 HD
ATOM    101  H   UNK A   1     -16.715  16.242   5.699  1.00  0.00    +0.041 HD
ATOM    102  H   UNK A   1     -17.052  13.459   7.428  1.00  0.00    +0.065 HD
ATOM    103  H   UNK A   1     -17.100  15.753   9.477  1.00  0.00    +0.026 HD
ATOM    104  H   UNK A   1     -16.389  15.857   7.856  1.00  0.00    +0.026 HD
ATOM    105  H   UNK A   1     -15.697  14.748   9.058  1.00  0.00    +0.026 HD
ATOM    106  H   UNK A   1     -16.047  10.745  10.585  1.00  0.00    +0.066 HD
ATOM    107  H   UNK A   1     -16.552   9.206   8.892  1.00  0.00    +0.034 HD
ATOM    108  H   UNK A   1     -17.931  10.079   9.472  1.00  0.00    +0.034 HD
ATOM    109  H   UNK A   1     -19.456  11.515   7.680  1.00  0.00    +0.082 HD
ATOM    110  H   UNK A   1     -19.340  11.788   5.234  1.00  0.00    +0.166 HD
ATOM    111  H   UNK A   1     -17.975  10.655   2.998  1.00  0.00    +0.064 HD
ATOM    112  H   UNK A   1     -15.821   9.483   2.492  1.00  0.00    +0.062 HD
ATOM    113  H   UNK A   1     -14.366   8.668   4.347  1.00  0.00    +0.062 HD
ATOM    114  H   UNK A   1     -15.041   8.980   6.664  1.00  0.00    +0.063 HD
ATOM    115  H   UNK A   1     -12.211  11.007   8.137  1.00  0.00    +0.066 HD
ATOM    116  H   UNK A   1     -12.689  10.066  10.684  1.00  0.00    +0.029 HD
ATOM    117  H   UNK A   1     -11.093  10.416  10.064  1.00  0.00    +0.029 HD
ATOM    118  H   UNK A   1     -10.565   8.110   9.794  1.00  0.00    +0.029 HD
ATOM    119  H   UNK A   1     -12.279   7.612   9.783  1.00  0.00    +0.029 HD
ATOM    120  H   UNK A   1     -11.305   6.989  11.906  1.00  0.00    +0.049 HD
ATOM    121  H   UNK A   1     -12.489   8.254  12.159  1.00  0.00    +0.049 HD
ATOM    122  H   UNK A   1     -10.270   9.658  11.776  1.00  0.00    +0.163 HD
ATOM    123  H   UNK A   1     -10.289   7.692  14.287  1.00  0.00    +0.191 HD
ATOM    124  H   UNK A   1      -7.682   7.582  12.179  1.00  0.00    +0.159 HD
ATOM    125  H   UNK A   1      -8.657   8.344  11.020  1.00  0.00    +0.159 HD
ATOM    126  H   UNK A   1     -11.037  10.555   5.699  1.00  0.00    +0.066 HD
ATOM    127  H   UNK A   1      -8.360  10.128   7.184  1.00  0.00    +0.032 HD
ATOM    128  H   UNK A   1      -8.808  12.572   7.820  1.00  0.00    +0.023 HD
ATOM    129  H   UNK A   1      -9.908  11.417   8.524  1.00  0.00    +0.023 HD
ATOM    130  H   UNK A   1     -10.425  12.385   7.139  1.00  0.00    +0.023 HD
ATOM    131  H   UNK A   1      -7.605  10.808   4.971  1.00  0.00    +0.023 HD
ATOM    132  H   UNK A   1      -7.412  12.136   6.110  1.00  0.00    +0.023 HD
ATOM    133  H   UNK A   1      -8.747  12.182   4.960  1.00  0.00    +0.023 HD
ATOM    134  H   UNK A   1      -9.643   9.076   1.696  1.00  0.00    +0.067 HD
ATOM    135  H   UNK A   1      -8.359  11.219   0.756  1.00  0.00    +0.041 HD
ATOM    136  H   UNK A   1      -8.600  11.904   2.351  1.00  0.00    +0.041 HD
ATOM    137  H   UNK A   1      -6.553   7.195   0.667  1.00  0.00    +0.065 HD
ATOM    138  H   UNK A   1      -7.686   7.285  -1.651  1.00  0.00    +0.026 HD
ATOM    139  H   UNK A   1      -8.727   7.466  -0.266  1.00  0.00    +0.026 HD
ATOM    140  H   UNK A   1      -8.270   8.902  -1.212  1.00  0.00    +0.026 HD
ATOM    141  H   UNK A   1      -3.717  10.107  -2.091  1.00  0.00    +0.062 HD
ATOM    142  H   UNK A   1      -3.536   8.460  -2.701  1.00  0.00    +0.062 HD
ATOM    143  H   UNK A   1      -5.207  12.293  -4.105  1.00  0.00    +0.062 HD
ATOM    144  H   UNK A   1      -5.106  11.740  -5.777  1.00  0.00    +0.062 HD
ATOM    145  H   UNK A   1      -4.452  14.661  -3.313  1.00  0.00    +0.066 HD
ATOM    146  H   UNK A   1      -4.257  17.215  -5.025  1.00  0.00    +0.032 HD
ATOM    147  H   UNK A   1      -3.252  18.166  -2.897  1.00  0.00    +0.023 HD
ATOM    148  H   UNK A   1      -4.935  17.713  -2.688  1.00  0.00    +0.023 HD
ATOM    149  H   UNK A   1      -3.666  16.654  -2.071  1.00  0.00    +0.023 HD
ATOM    150  H   UNK A   1      -2.251  15.822  -5.508  1.00  0.00    +0.023 HD
ATOM    151  H   UNK A   1      -1.950  15.645  -3.746  1.00  0.00    +0.023 HD
ATOM    152  H   UNK A   1      -1.840  17.224  -4.562  1.00  0.00    +0.023 HD
ATOM    153  H   UNK A   1      -8.773  15.503  -3.107  1.00  0.00    +0.067 HD
ATOM    154  H   UNK A   1      -8.101  15.237  -0.131  1.00  0.00    +0.041 HD
ATOM    155  H   UNK A   1      -7.941  13.841  -1.189  1.00  0.00    +0.041 HD
ATOM    156  H   UNK A   1      -7.227  19.280   0.386  1.00  0.00    +0.064 HD
ATOM    157  H   UNK A   1      -8.840  19.312  -0.321  1.00  0.00    +0.064 HD
ATOM    158  H   UNK A   1      -8.131  19.216  -2.796  1.00  0.00    +0.296 HD
ATOM    159  H   UNK A   1     -11.402  17.563   3.527  1.00  0.00    +0.063 HD
ATOM    160  H   UNK A   1     -13.598  16.746   4.147  1.00  0.00    +0.063 HD
ATOM    161  H   UNK A   1     -14.556  14.064   4.704  1.00  0.00    +0.043 HD
ATOM    162  H   UNK A   1     -15.000  13.387   3.122  1.00  0.00    +0.043 HD
ATOM    163  H   UNK A   1     -12.914  13.178   1.846  1.00  0.00    +0.063 HD
ATOM    164  H   UNK A   1      -9.260  13.853   1.384  1.00  0.00    +0.058 HD
ATOM    165  H   UNK A   1      -9.338  16.626   1.030  1.00  0.00    +0.028 HD
ATOM    166  H   UNK A   1      -9.313  17.332   2.650  1.00  0.00    +0.028 HD
ATOM    167  H   UNK A   1      -8.695  15.711   2.451  1.00  0.00    +0.028 HD
ENDROOT
TORSDOF 0
ENDMDL
