MODEL 1
REMARK VINA RESULT:      -3.0      0.000      0.000
REMARK  Generated by RDKit with Gasteiger charges
REMARK  --------------------------------------------------
ROOT
ATOM      1  N   UNK A   1     -20.111   9.214   0.048  1.00  0.00    -0.131 N 
ATOM      2  C   UNK A   1     -19.267  10.400   0.274  1.00  0.00    +0.121 C 
ATOM      3  C   UNK A   1     -19.875  11.216   1.411  1.00  0.00    -0.037 C 
ATOM      4  C   UNK A   1     -17.836   9.962   0.626  1.00  0.00    +0.262 C 
ATOM      5  O   UNK A   1     -17.606   8.914   1.232  1.00  0.00    -0.271 OA
ATOM      6  N   UNK A   1     -16.975  10.890   0.186  1.00  0.00    -0.236 N 
ATOM      7  C   UNK A   1     -15.658  10.934   0.896  1.00  0.00    +0.141 C 
ATOM      8  C   UNK A   1     -14.654  11.942   0.244  1.00  0.00    +0.025 C 
ATOM      9  S   UNK A   1     -13.889  11.391  -1.348  1.00  0.00    -0.154 S 
ATOM     10  C   UNK A   1     -15.817  11.429   2.368  1.00  0.00    +0.249 C 
ATOM     11  O   UNK A   1     -16.824  12.013   2.790  1.00  0.00    -0.272 OA
ATOM     12  N   UNK A   1     -14.711  11.184   3.185  1.00  0.00    -0.329 N 
ATOM     13  C   UNK A   1     -14.207   9.829   3.298  1.00  0.00    +0.021 C 
ATOM     14  C   UNK A   1     -14.320   9.483   4.792  1.00  0.00    -0.033 C 
ATOM     15  C   UNK A   1     -15.021  10.694   5.415  1.00  0.00    -0.022 C 
ATOM     16  C   UNK A   1     -14.578  11.837   4.492  1.00  0.00    +0.113 C 
ATOM     17  C   UNK A   1     -13.147  12.342   4.933  1.00  0.00    +0.264 C 
ATOM     18  O   UNK A   1     -12.818  12.248   6.126  1.00  0.00    -0.271 OA
ATOM     19  N   UNK A   1     -12.488  12.944   3.934  1.00  0.00    -0.236 N 
ATOM     20  C   UNK A   1     -10.977  12.989   4.050  1.00  0.00    +0.136 C 
ATOM     21  C   UNK A   1     -10.374  11.570   3.770  1.00  0.00    -0.015 C 
ATOM     22  C   UNK A   1      -8.903  11.467   4.189  1.00  0.00    -0.060 C 
ATOM     23  C   UNK A   1     -10.567  11.041   2.344  1.00  0.00    -0.060 C 
ATOM     24  C   UNK A   1     -10.300  14.253   3.313  1.00  0.00    +0.267 C 
ATOM     25  O   UNK A   1     -10.380  15.355   3.874  1.00  0.00    -0.270 OA
ATOM     26  N   UNK A   1      -9.694  13.955   2.142  1.00  0.00    -0.235 N 
ATOM     27  C   UNK A   1      -8.599  14.886   1.560  1.00  0.00    +0.143 C 
ATOM     28  C   UNK A   1      -7.282  14.010   1.208  1.00  0.00    +0.060 C 
ATOM     29  C   UNK A   1      -6.064  13.862   2.225  1.00  0.00    +0.244 C 
ATOM     30  O   UNK A   1      -5.982  14.540   3.254  1.00  0.00    -0.273 OA
ATOM     31  C   UNK A   1      -9.170  15.594   0.170  1.00  0.00    +0.267 C 
ATOM     32  O   UNK A   1     -10.147  15.128  -0.427  1.00  0.00    -0.270 OA
ATOM     33  N   UNK A   1      -5.125  12.905   1.938  1.00  0.00    -0.238 N 
ATOM     34  C   UNK A   1      -4.483  12.891   0.579  1.00  0.00    +0.134 C 
ATOM     35  C   UNK A   1      -3.880  14.259   0.162  1.00  0.00    -0.019 C 
ATOM     36  C   UNK A   1      -2.530  14.682   0.788  1.00  0.00    -0.045 C 
ATOM     37  C   UNK A   1      -2.051  15.980   0.130  1.00  0.00    -0.063 C 
ATOM     38  C   UNK A   1      -2.596  14.880   2.302  1.00  0.00    -0.063 C 
ATOM     39  C   UNK A   1      -3.357  11.771   0.432  1.00  0.00    +0.266 C 
ATOM     40  O   UNK A   1      -2.643  11.419   1.379  1.00  0.00    -0.270 OA
ATOM     41  N   UNK A   1      -8.483  16.715  -0.203  1.00  0.00    -0.235 N 
ATOM     42  C   UNK A   1      -8.338  17.089  -1.694  1.00  0.00    +0.143 C 
ATOM     43  C   UNK A   1      -8.537  15.922  -2.724  1.00  0.00    +0.027 C 
ATOM     44  S   UNK A   1      -7.348  14.457  -2.628  1.00  0.00    -0.140 S 
ATOM     45  C   UNK A   1      -9.208  18.375  -2.196  1.00  0.00    +0.267 C 
ATOM     46  O   UNK A   1     -10.442  18.319  -2.257  1.00  0.00    -0.270 OA
ATOM     47  N   UNK A   1      -3.313  11.265  -0.826  1.00  0.00    -0.235 N 
ATOM     48  C   UNK A   1      -2.296  10.216  -1.130  1.00  0.00    +0.143 C 
ATOM     49  C   UNK A   1      -2.835   8.785  -0.906  1.00  0.00    +0.058 C 
ATOM     50  C   UNK A   1      -2.927   8.386   0.555  1.00  0.00    +0.220 C 
ATOM     51  O   UNK A   1      -2.161   7.586   1.105  1.00  0.00    -0.275 OA
ATOM     52  N   UNK A   1      -4.007   8.914   1.213  1.00  0.00    -0.370 N 
ATOM     53  C   UNK A   1      -1.729  10.354  -2.599  1.00  0.00    +0.267 C 
ATOM     54  O   UNK A   1      -0.624  10.878  -2.785  1.00  0.00    -0.270 OA
ATOM     55  N   UNK A   1      -8.458  19.453  -2.623  1.00  0.00    -0.236 N 
ATOM     56  C   UNK A   1      -9.270  20.720  -2.969  1.00  0.00    +0.138 C 
ATOM     57  C   UNK A   1      -9.831  21.333  -1.642  1.00  0.00    +0.004 C 
ATOM     58  C   UNK A   1     -10.942  22.350  -1.855  1.00  0.00    -0.045 C 
ATOM     59  C   UNK A   1     -12.261  21.923  -2.068  1.00  0.00    -0.055 C 
ATOM     60  C   UNK A   1     -13.239  22.828  -2.490  1.00  0.00    -0.020 C 
ATOM     61  C   UNK A   1     -12.876  24.150  -2.715  1.00  0.00    +0.115 C 
ATOM     62  O   UNK A   1     -13.729  24.978  -3.400  1.00  0.00    -0.508 OA
ATOM     63  C   UNK A   1     -11.590  24.610  -2.441  1.00  0.00    -0.020 C 
ATOM     64  C   UNK A   1     -10.627  23.708  -1.999  1.00  0.00    -0.055 C 
ATOM     65  C   UNK A   1      -8.430  21.888  -3.697  1.00  0.00    +0.267 C 
ATOM     66  O   UNK A   1      -7.298  22.211  -3.311  1.00  0.00    -0.270 OA
ATOM     67  N   UNK A   1      -2.493   9.768  -3.549  1.00  0.00    -0.235 N 
ATOM     68  C   UNK A   1      -2.429  10.399  -4.901  1.00  0.00    +0.143 C 
ATOM     69  C   UNK A   1      -1.183   9.890  -5.672  1.00  0.00    +0.058 C 
ATOM     70  C   UNK A   1      -1.089  10.281  -7.140  1.00  0.00    +0.220 C 
ATOM     71  O   UNK A   1      -0.582   9.558  -8.011  1.00  0.00    -0.275 OA
ATOM     72  N   UNK A   1      -1.429  11.564  -7.463  1.00  0.00    -0.370 N 
ATOM     73  C   UNK A   1      -3.694  10.003  -5.740  1.00  0.00    +0.267 C 
ATOM     74  O   UNK A   1      -3.819   8.837  -6.142  1.00  0.00    -0.270 OA
ATOM     75  N   UNK A   1      -9.138  22.546  -4.671  1.00  0.00    -0.236 N 
ATOM     76  C   UNK A   1      -8.567  23.872  -5.086  1.00  0.00    +0.131 C 
ATOM     77  C   UNK A   1      -7.424  23.662  -6.094  1.00  0.00    -0.033 C 
ATOM     78  C   UNK A   1      -9.599  24.824  -5.779  1.00  0.00    +0.266 C 
ATOM     79  O   UNK A   1     -10.297  24.508  -6.746  1.00  0.00    -0.271 OA
ATOM     80  N   UNK A   1      -4.496  10.987  -6.198  1.00  0.00    -0.233 N 
ATOM     81  C   UNK A   1      -4.941  12.129  -5.322  1.00  0.00    +0.160 C 
ATOM     82  C   UNK A   1      -5.468  11.744  -3.914  1.00  0.00    +0.028 C 
ATOM     83  S   UNK A   1      -7.322  11.548  -3.807  1.00  0.00    -0.140 S 
ATOM     84  C   UNK A   1      -3.946  13.302  -5.418  1.00  0.00    +0.329 C 
ATOM     85  O   UNK A   1      -3.180  13.473  -6.372  1.00  0.00    -0.250 OA
ATOM     86  O   UNK A   1      -4.057  14.275  -4.489  1.00  0.00    -0.480 OA
ATOM     87  N   UNK A   1      -9.515  26.099  -5.339  1.00  0.00    -0.238 N 
ATOM     88  C   UNK A   1     -10.685  26.934  -5.631  1.00  0.00    +0.140 C 
ATOM     89  C   UNK A   1     -10.667  27.588  -6.996  1.00  0.00    +0.325 C 
ATOM     90  O   UNK A   1     -10.974  28.764  -7.202  1.00  0.00    -0.250 OA
ATOM     91  O   UNK A   1     -10.368  26.750  -8.011  1.00  0.00    -0.480 OA
ATOM     92  C   UNK A   1     -11.695  13.001  -5.077  1.00  0.00    -0.059 C 
ATOM     93  C   UNK A   1     -12.380  12.760  -3.882  1.00  0.00    -0.058 C 
ATOM     94  C   UNK A   1     -11.691  12.663  -2.669  1.00  0.00    -0.038 C 
ATOM     95  C   UNK A   1     -12.406  12.541  -1.326  1.00  0.00    +0.019 C 
ATOM     96  C   UNK A   1     -10.289  12.851  -2.692  1.00  0.00    -0.053 C 
ATOM     97  C   UNK A   1      -9.568  13.122  -3.884  1.00  0.00    -0.022 C 
ATOM     98  C   UNK A   1      -8.033  13.294  -3.853  1.00  0.00    +0.076 C 
ATOM     99  C   UNK A   1     -10.299  13.178  -5.097  1.00  0.00    -0.046 C 
ATOM    100  C   UNK A   1      -9.623  13.457  -6.409  1.00  0.00    -0.039 C 
ATOM    101  H   UNK A   1     -19.275  10.984  -0.652  1.00  0.00    +0.060 HD
ATOM    102  H   UNK A   1     -20.926  11.457   1.205  1.00  0.00    +0.025 HD
ATOM    103  H   UNK A   1     -19.338  12.160   1.541  1.00  0.00    +0.025 HD
ATOM    104  H   UNK A   1     -19.830  10.674   2.362  1.00  0.00    +0.025 HD
ATOM    105  H   UNK A   1     -15.192   9.944   0.883  1.00  0.00    +0.067 HD
ATOM    106  H   UNK A   1     -15.158  12.896   0.048  1.00  0.00    +0.041 HD
ATOM    107  H   UNK A   1     -13.825  12.138   0.930  1.00  0.00    +0.041 HD
ATOM    108  H   UNK A   1     -13.159   9.799   2.977  1.00  0.00    +0.049 HD
ATOM    109  H   UNK A   1     -14.789   9.112   2.714  1.00  0.00    +0.049 HD
ATOM    110  H   UNK A   1     -14.888   8.561   4.957  1.00  0.00    +0.029 HD
ATOM    111  H   UNK A   1     -13.322   9.340   5.224  1.00  0.00    +0.029 HD
ATOM    112  H   UNK A   1     -16.109  10.559   5.353  1.00  0.00    +0.029 HD
ATOM    113  H   UNK A   1     -14.763  10.829   6.470  1.00  0.00    +0.029 HD
ATOM    114  H   UNK A   1     -15.257  12.696   4.576  1.00  0.00    +0.064 HD
ATOM    115  H   UNK A   1     -10.720  13.200   5.103  1.00  0.00    +0.066 HD
ATOM    116  H   UNK A   1     -10.913  10.864   4.419  1.00  0.00    +0.032 HD
ATOM    117  H   UNK A   1      -8.776  11.756   5.237  1.00  0.00    +0.023 HD
ATOM    118  H   UNK A   1      -8.256  12.101   3.578  1.00  0.00    +0.023 HD
ATOM    119  H   UNK A   1      -8.548  10.437   4.083  1.00  0.00    +0.023 HD
ATOM    120  H   UNK A   1     -11.570  11.253   1.961  1.00  0.00    +0.023 HD
ATOM    121  H   UNK A   1      -9.839  11.452   1.639  1.00  0.00    +0.023 HD
ATOM    122  H   UNK A   1     -10.430   9.952   2.330  1.00  0.00    +0.023 HD
ATOM    123  H   UNK A   1      -8.331  15.685   2.261  1.00  0.00    +0.066 HD
ATOM    124  H   UNK A   1      -6.839  14.458   0.313  1.00  0.00    +0.040 HD
ATOM    125  H   UNK A   1      -7.606  12.996   0.938  1.00  0.00    +0.040 HD
ATOM    126  H   UNK A   1      -5.263  12.642  -0.160  1.00  0.00    +0.066 HD
ATOM    127  H   UNK A   1      -4.610  15.064   0.329  1.00  0.00    +0.030 HD
ATOM    128  H   UNK A   1      -3.737  14.221  -0.927  1.00  0.00    +0.030 HD
ATOM    129  H   UNK A   1      -1.774  13.919   0.574  1.00  0.00    +0.030 HD
ATOM    130  H   UNK A   1      -1.075  16.284   0.526  1.00  0.00    +0.023 HD
ATOM    131  H   UNK A   1      -2.756  16.802   0.303  1.00  0.00    +0.023 HD
ATOM    132  H   UNK A   1      -1.939  15.852  -0.952  1.00  0.00    +0.023 HD
ATOM    133  H   UNK A   1      -2.767  13.930   2.819  1.00  0.00    +0.023 HD
ATOM    134  H   UNK A   1      -3.394  15.575   2.576  1.00  0.00    +0.023 HD
ATOM    135  H   UNK A   1      -1.654  15.288   2.679  1.00  0.00    +0.023 HD
ATOM    136  H   UNK A   1      -7.289  17.405  -1.811  1.00  0.00    +0.067 HD
ATOM    137  H   UNK A   1      -8.396  16.333  -3.732  1.00  0.00    +0.041 HD
ATOM    138  H   UNK A   1      -9.567  15.567  -2.690  1.00  0.00    +0.041 HD
ATOM    139  H   UNK A   1      -1.406  10.333  -0.492  1.00  0.00    +0.066 HD
ATOM    140  H   UNK A   1      -2.174   8.049  -1.385  1.00  0.00    +0.039 HD
ATOM    141  H   UNK A   1      -3.823   8.650  -1.364  1.00  0.00    +0.039 HD
ATOM    142  H   UNK A   1      -4.420   9.690   0.671  1.00  0.00    +0.159 HD
ATOM    143  H   UNK A   1      -3.721   9.367   2.077  1.00  0.00    +0.159 HD
ATOM    144  H   UNK A   1     -10.098  20.451  -3.640  1.00  0.00    +0.066 HD
ATOM    145  H   UNK A   1     -10.220  20.557  -0.974  1.00  0.00    +0.034 HD
ATOM    146  H   UNK A   1      -9.016  21.806  -1.077  1.00  0.00    +0.034 HD
ATOM    147  H   UNK A   1     -12.474  20.856  -2.002  1.00  0.00    +0.063 HD
ATOM    148  H   UNK A   1     -14.217  22.454  -2.767  1.00  0.00    +0.066 HD
ATOM    149  H   UNK A   1     -13.166  25.173  -4.180  1.00  0.00    +0.293 HD
ATOM    150  H   UNK A   1     -11.284  25.621  -2.683  1.00  0.00    +0.066 HD
ATOM    151  H   UNK A   1      -9.586  24.016  -1.913  1.00  0.00    +0.063 HD
ATOM    152  H   UNK A   1      -2.358  11.484  -4.813  1.00  0.00    +0.066 HD
ATOM    153  H   UNK A   1      -0.262  10.238  -5.191  1.00  0.00    +0.039 HD
ATOM    154  H   UNK A   1      -1.159   8.792  -5.640  1.00  0.00    +0.039 HD
ATOM    155  H   UNK A   1      -1.688  11.701  -8.422  1.00  0.00    +0.159 HD
ATOM    156  H   UNK A   1      -2.119  12.003  -6.835  1.00  0.00    +0.159 HD
ATOM    157  H   UNK A   1      -8.164  24.406  -4.213  1.00  0.00    +0.065 HD
ATOM    158  H   UNK A   1      -7.767  23.110  -6.977  1.00  0.00    +0.026 HD
ATOM    159  H   UNK A   1      -6.593  23.100  -5.652  1.00  0.00    +0.026 HD
ATOM    160  H   UNK A   1      -7.028  24.625  -6.440  1.00  0.00    +0.026 HD
ATOM    161  H   UNK A   1      -5.803  12.569  -5.851  1.00  0.00    +0.068 HD
ATOM    162  H   UNK A   1      -5.153  12.413  -3.112  1.00  0.00    +0.041 HD
ATOM    163  H   UNK A   1      -5.096  10.758  -3.626  1.00  0.00    +0.041 HD
ATOM    164  H   UNK A   1      -4.674  14.095  -3.744  1.00  0.00    +0.296 HD
ATOM    165  H   UNK A   1     -11.642  26.405  -5.526  1.00  0.00    +0.064 HD
ATOM    166  H   UNK A   1     -10.715  27.755  -4.900  1.00  0.00    +0.064 HD
ATOM    167  H   UNK A   1     -10.190  25.857  -7.583  1.00  0.00    +0.296 HD
ATOM    168  H   UNK A   1     -12.265  13.080  -5.995  1.00  0.00    +0.063 HD
ATOM    169  H   UNK A   1     -13.461  12.689  -3.891  1.00  0.00    +0.063 HD
ATOM    170  H   UNK A   1     -11.716  12.151  -0.571  1.00  0.00    +0.043 HD
ATOM    171  H   UNK A   1     -12.743  13.538  -1.022  1.00  0.00    +0.043 HD
ATOM    172  H   UNK A   1      -9.748  12.858  -1.737  1.00  0.00    +0.063 HD
ATOM    173  H   UNK A   1      -7.698  13.704  -4.810  1.00  0.00    +0.058 HD
ATOM    174  H   UNK A   1      -8.842  12.715  -6.605  1.00  0.00    +0.028 HD
ATOM    175  H   UNK A   1      -9.192  14.464  -6.411  1.00  0.00    +0.028 HD
ATOM    176  H   UNK A   1     -10.328  13.399  -7.243  1.00  0.00    +0.028 HD
ENDROOT
TORSDOF 0
ENDMDL
