REMARK  Generated by RDKit with Gasteiger charges
REMARK  --------------------------------------------------
ROOT
ATOM      1  N   UNK A   1      -1.397  10.316  -1.534  1.00  0.00    -0.131 N 
ATOM      2  C   UNK A   1      -1.560   8.854  -1.324  1.00  0.00    +0.121 C 
ATOM      3  C   UNK A   1      -2.926   8.647  -0.684  1.00  0.00    -0.037 C 
ATOM      4  C   UNK A   1      -1.458   8.168  -2.702  1.00  0.00    +0.262 C 
ATOM      5  O   UNK A   1      -1.897   8.712  -3.725  1.00  0.00    -0.271 OA
ATOM      6  N   UNK A   1      -0.755   7.026  -2.679  1.00  0.00    -0.236 N 
ATOM      7  C   UNK A   1      -1.478   5.844  -2.053  1.00  0.00    +0.143 C 
ATOM      8  C   UNK A   1      -1.437   4.603  -3.004  1.00  0.00    +0.025 C 
ATOM      9  S   UNK A   1       0.158   3.779  -3.457  1.00  0.00    -0.154 S 
ATOM     10  C   UNK A   1      -1.133   5.517  -0.546  1.00  0.00    +0.267 C 
ATOM     11  O   UNK A   1      -0.577   6.348   0.179  1.00  0.00    -0.270 OA
ATOM     12  N   UNK A   1      -1.693   4.347  -0.183  1.00  0.00    -0.236 N 
ATOM     13  C   UNK A   1      -1.495   3.800   1.206  1.00  0.00    +0.135 C 
ATOM     14  C   UNK A   1      -2.941   3.444   1.825  1.00  0.00    -0.012 C 
ATOM     15  C   UNK A   1      -3.924   2.448   1.103  1.00  0.00    +0.031 C 
ATOM     16  C   UNK A   1      -5.459   2.482   1.560  1.00  0.00    +0.242 C 
ATOM     17  O   UNK A   1      -5.977   3.506   2.021  1.00  0.00    -0.273 OA
ATOM     18  C   UNK A   1      -0.485   2.557   1.227  1.00  0.00    +0.266 C 
ATOM     19  O   UNK A   1      -0.722   1.562   0.538  1.00  0.00    -0.270 OA
ATOM     20  N   UNK A   1      -6.086   1.296   1.336  1.00  0.00    -0.238 N 
ATOM     21  C   UNK A   1      -7.585   1.324   1.095  1.00  0.00    +0.138 C 
ATOM     22  C   UNK A   1      -7.887   1.948  -0.294  1.00  0.00    +0.004 C 
ATOM     23  C   UNK A   1      -9.292   2.526  -0.428  1.00  0.00    -0.045 C 
ATOM     24  C   UNK A   1      -9.609   3.778   0.120  1.00  0.00    -0.055 C 
ATOM     25  C   UNK A   1     -10.911   4.284   0.035  1.00  0.00    -0.020 C 
ATOM     26  C   UNK A   1     -11.896   3.525  -0.587  1.00  0.00    +0.115 C 
ATOM     27  O   UNK A   1     -13.187   3.991  -0.601  1.00  0.00    -0.508 OA
ATOM     28  C   UNK A   1     -11.597   2.284  -1.147  1.00  0.00    -0.020 C 
ATOM     29  C   UNK A   1     -10.296   1.792  -1.069  1.00  0.00    -0.055 C 
ATOM     30  C   UNK A   1      -8.269  -0.120   1.349  1.00  0.00    +0.267 C 
ATOM     31  O   UNK A   1      -8.436  -0.500   2.519  1.00  0.00    -0.270 OA
ATOM     32  N   UNK A   1       0.559   2.664   2.107  1.00  0.00    -0.236 N 
ATOM     33  C   UNK A   1       1.961   2.376   1.504  1.00  0.00    +0.137 C 
ATOM     34  C   UNK A   1       2.629   3.793   1.324  1.00  0.00    -0.013 C 
ATOM     35  C   UNK A   1       3.031   4.411   2.675  1.00  0.00    -0.060 C 
ATOM     36  C   UNK A   1       3.834   3.885   0.362  1.00  0.00    -0.051 C 
ATOM     37  C   UNK A   1       3.565   3.372  -1.043  1.00  0.00    -0.065 C 
ATOM     38  C   UNK A   1       2.926   1.352   2.316  1.00  0.00    +0.267 C 
ATOM     39  O   UNK A   1       2.682   0.979   3.467  1.00  0.00    -0.270 OA
ATOM     40  N   UNK A   1      -8.729  -0.761   0.236  1.00  0.00    -0.236 N 
ATOM     41  C   UNK A   1      -9.027  -2.248   0.358  1.00  0.00    +0.137 C 
ATOM     42  C   UNK A   1     -10.352  -2.491   1.163  1.00  0.00    -0.013 C 
ATOM     43  C   UNK A   1     -11.604  -1.951   0.454  1.00  0.00    -0.060 C 
ATOM     44  C   UNK A   1     -10.594  -3.967   1.553  1.00  0.00    -0.051 C 
ATOM     45  C   UNK A   1      -9.509  -4.557   2.442  1.00  0.00    -0.065 C 
ATOM     46  C   UNK A   1      -9.125  -2.973  -1.071  1.00  0.00    +0.267 C 
ATOM     47  O   UNK A   1      -9.832  -2.532  -1.987  1.00  0.00    -0.270 OA
ATOM     48  N   UNK A   1       4.068   1.059   1.627  1.00  0.00    -0.235 N 
ATOM     49  C   UNK A   1       4.609  -0.361   1.668  1.00  0.00    +0.143 C 
ATOM     50  C   UNK A   1       4.023  -1.166   0.444  1.00  0.00    +0.027 C 
ATOM     51  S   UNK A   1       2.284  -1.863   0.570  1.00  0.00    -0.140 S 
ATOM     52  C   UNK A   1       6.242  -0.341   1.463  1.00  0.00    +0.267 C 
ATOM     53  O   UNK A   1       6.752   0.284   0.523  1.00  0.00    -0.270 OA
ATOM     54  N   UNK A   1      -8.508  -4.187  -1.089  1.00  0.00    -0.236 N 
ATOM     55  C   UNK A   1      -7.462  -4.346  -2.175  1.00  0.00    +0.131 C 
ATOM     56  C   UNK A   1      -6.329  -3.325  -1.948  1.00  0.00    -0.033 C 
ATOM     57  C   UNK A   1      -6.851  -5.818  -2.264  1.00  0.00    +0.266 C 
ATOM     58  O   UNK A   1      -7.345  -6.795  -1.690  1.00  0.00    -0.270 OA
ATOM     59  N   UNK A   1       6.947  -1.117   2.354  1.00  0.00    -0.236 N 
ATOM     60  C   UNK A   1       8.480  -0.931   2.317  1.00  0.00    +0.138 C 
ATOM     61  C   UNK A   1       8.826   0.475   2.900  1.00  0.00    +0.004 C 
ATOM     62  C   UNK A   1      10.245   0.955   2.626  1.00  0.00    -0.045 C 
ATOM     63  C   UNK A   1      10.569   1.548   1.396  1.00  0.00    -0.055 C 
ATOM     64  C   UNK A   1      11.898   1.854   1.085  1.00  0.00    -0.020 C 
ATOM     65  C   UNK A   1      12.894   1.546   2.004  1.00  0.00    +0.115 C 
ATOM     66  O   UNK A   1      14.210   1.648   1.632  1.00  0.00    -0.508 OA
ATOM     67  C   UNK A   1      12.586   1.010   3.252  1.00  0.00    -0.020 C 
ATOM     68  C   UNK A   1      11.261   0.714   3.558  1.00  0.00    -0.055 C 
ATOM     69  C   UNK A   1       9.302  -2.016   3.172  1.00  0.00    +0.267 C 
ATOM     70  O   UNK A   1       8.918  -2.402   4.281  1.00  0.00    -0.270 OA
ATOM     71  N   UNK A   1      -5.829  -5.926  -3.156  1.00  0.00    -0.234 N 
ATOM     72  C   UNK A   1      -4.558  -6.525  -2.591  1.00  0.00    +0.157 C 
ATOM     73  C   UNK A   1      -4.552  -8.062  -2.780  1.00  0.00    +0.075 C 
ATOM     74  O   UNK A   1      -5.553  -8.742  -2.003  1.00  0.00    -0.394 OA
ATOM     75  C   UNK A   1      -3.262  -6.024  -3.349  1.00  0.00    +0.269 C 
ATOM     76  O   UNK A   1      -3.102  -6.244  -4.557  1.00  0.00    -0.270 OA
ATOM     77  N   UNK A   1      10.498  -2.364   2.597  1.00  0.00    -0.236 N 
ATOM     78  C   UNK A   1      11.360  -3.265   3.424  1.00  0.00    +0.131 C 
ATOM     79  C   UNK A   1      10.867  -4.715   3.309  1.00  0.00    -0.033 C 
ATOM     80  C   UNK A   1      12.864  -3.256   2.988  1.00  0.00    +0.266 C 
ATOM     81  O   UNK A   1      13.288  -3.812   1.974  1.00  0.00    -0.271 OA
ATOM     82  N   UNK A   1      -2.332  -5.493  -2.513  1.00  0.00    -0.233 N 
ATOM     83  C   UNK A   1      -1.272  -4.669  -3.190  1.00  0.00    +0.160 C 
ATOM     84  C   UNK A   1      -0.621  -3.526  -2.300  1.00  0.00    +0.028 C 
ATOM     85  S   UNK A   1       0.898  -3.928  -1.279  1.00  0.00    -0.140 S 
ATOM     86  C   UNK A   1      -0.202  -5.507  -3.853  1.00  0.00    +0.329 C 
ATOM     87  O   UNK A   1       0.434  -5.221  -4.869  1.00  0.00    -0.250 OA
ATOM     88  O   UNK A   1       0.155  -6.645  -3.210  1.00  0.00    -0.480 OA
ATOM     89  N   UNK A   1      13.650  -2.602   3.871  1.00  0.00    -0.238 N 
ATOM     90  C   UNK A   1      15.091  -2.846   3.718  1.00  0.00    +0.140 C 
ATOM     91  C   UNK A   1      15.749  -1.803   2.842  1.00  0.00    +0.325 C 
ATOM     92  O   UNK A   1      16.967  -1.660   2.742  1.00  0.00    -0.250 OA
ATOM     93  O   UNK A   1      14.873  -1.001   2.192  1.00  0.00    -0.480 OA
ATOM     94  C   UNK A   1       1.828  -0.342  -4.492  1.00  0.00    -0.059 C 
ATOM     95  C   UNK A   1       1.190   0.839  -4.107  1.00  0.00    -0.058 C 
ATOM     96  C   UNK A   1       0.802   1.044  -2.783  1.00  0.00    -0.038 C 
ATOM     97  C   UNK A   1       0.098   2.321  -2.286  1.00  0.00    +0.019 C 
ATOM     98  C   UNK A   1       1.026  -0.018  -1.863  1.00  0.00    -0.053 C 
ATOM     99  C   UNK A   1       1.672  -1.231  -2.219  1.00  0.00    -0.022 C 
ATOM    100  C   UNK A   1       1.947  -2.334  -1.188  1.00  0.00    +0.076 C 
ATOM    101  C   UNK A   1       2.089  -1.371  -3.569  1.00  0.00    -0.046 C 
ATOM    102  C   UNK A   1       2.833  -2.583  -4.055  1.00  0.00    -0.039 C 
ATOM    103  H   UNK A   1      -0.748   8.552  -0.662  1.00  0.00    +0.060 HD
ATOM    104  H   UNK A   1      -3.739   8.899  -1.374  1.00  0.00    +0.025 HD
ATOM    105  H   UNK A   1      -3.038   9.263   0.215  1.00  0.00    +0.025 HD
ATOM    106  H   UNK A   1      -3.072   7.608  -0.378  1.00  0.00    +0.025 HD
ATOM    107  H   UNK A   1      -2.553   6.090  -2.012  1.00  0.00    +0.067 HD
ATOM    108  H   UNK A   1      -2.140   3.833  -2.667  1.00  0.00    +0.041 HD
ATOM    109  H   UNK A   1      -1.840   4.933  -3.972  1.00  0.00    +0.041 HD
ATOM    110  H   UNK A   1      -1.073   4.561   1.877  1.00  0.00    +0.066 HD
ATOM    111  H   UNK A   1      -2.778   3.057   2.840  1.00  0.00    +0.030 HD
ATOM    112  H   UNK A   1      -3.473   4.397   1.948  1.00  0.00    +0.030 HD
ATOM    113  H   UNK A   1      -3.538   1.432   1.240  1.00  0.00    +0.037 HD
ATOM    114  H   UNK A   1      -3.930   2.666   0.029  1.00  0.00    +0.037 HD
ATOM    115  H   UNK A   1      -8.058   1.959   1.861  1.00  0.00    +0.066 HD
ATOM    116  H   UNK A   1      -7.194   2.776  -0.502  1.00  0.00    +0.034 HD
ATOM    117  H   UNK A   1      -7.699   1.230  -1.102  1.00  0.00    +0.034 HD
ATOM    118  H   UNK A   1      -8.819   4.322   0.638  1.00  0.00    +0.063 HD
ATOM    119  H   UNK A   1     -11.139   5.239   0.487  1.00  0.00    +0.066 HD
ATOM    120  H   UNK A   1     -13.706   3.197  -0.811  1.00  0.00    +0.293 HD
ATOM    121  H   UNK A   1     -12.340   1.656  -1.622  1.00  0.00    +0.066 HD
ATOM    122  H   UNK A   1     -10.050   0.802  -1.462  1.00  0.00    +0.063 HD
ATOM    123  H   UNK A   1       1.833   1.912   0.519  1.00  0.00    +0.066 HD
ATOM    124  H   UNK A   1       1.864   4.458   0.896  1.00  0.00    +0.033 HD
ATOM    125  H   UNK A   1       2.193   4.430   3.379  1.00  0.00    +0.023 HD
ATOM    126  H   UNK A   1       3.855   3.862   3.140  1.00  0.00    +0.023 HD
ATOM    127  H   UNK A   1       3.359   5.447   2.539  1.00  0.00    +0.023 HD
ATOM    128  H   UNK A   1       4.714   3.384   0.775  1.00  0.00    +0.027 HD
ATOM    129  H   UNK A   1       4.120   4.942   0.275  1.00  0.00    +0.027 HD
ATOM    130  H   UNK A   1       2.709   3.889  -1.484  1.00  0.00    +0.023 HD
ATOM    131  H   UNK A   1       4.434   3.561  -1.683  1.00  0.00    +0.023 HD
ATOM    132  H   UNK A   1       3.376   2.296  -1.057  1.00  0.00    +0.023 HD
ATOM    133  H   UNK A   1      -8.187  -2.713   0.893  1.00  0.00    +0.066 HD
ATOM    134  H   UNK A   1     -10.288  -1.940   2.109  1.00  0.00    +0.033 HD
ATOM    135  H   UNK A   1     -11.870  -2.552  -0.420  1.00  0.00    +0.023 HD
ATOM    136  H   UNK A   1     -12.464  -1.974   1.135  1.00  0.00    +0.023 HD
ATOM    137  H   UNK A   1     -11.473  -0.913   0.137  1.00  0.00    +0.023 HD
ATOM    138  H   UNK A   1     -11.543  -4.032   2.102  1.00  0.00    +0.027 HD
ATOM    139  H   UNK A   1     -10.719  -4.591   0.661  1.00  0.00    +0.027 HD
ATOM    140  H   UNK A   1      -8.562  -4.670   1.907  1.00  0.00    +0.023 HD
ATOM    141  H   UNK A   1      -9.809  -5.551   2.789  1.00  0.00    +0.023 HD
ATOM    142  H   UNK A   1      -9.337  -3.931   3.323  1.00  0.00    +0.023 HD
ATOM    143  H   UNK A   1       4.394  -0.879   2.610  1.00  0.00    +0.067 HD
ATOM    144  H   UNK A   1       4.060  -0.539  -0.454  1.00  0.00    +0.041 HD
ATOM    145  H   UNK A   1       4.665  -2.035   0.258  1.00  0.00    +0.041 HD
ATOM    146  H   UNK A   1      -7.918  -4.157  -3.158  1.00  0.00    +0.065 HD
ATOM    147  H   UNK A   1      -6.707  -2.297  -1.920  1.00  0.00    +0.026 HD
ATOM    148  H   UNK A   1      -5.584  -3.361  -2.749  1.00  0.00    +0.026 HD
ATOM    149  H   UNK A   1      -5.809  -3.518  -1.002  1.00  0.00    +0.026 HD
ATOM    150  H   UNK A   1       8.831  -1.010   1.278  1.00  0.00    +0.066 HD
ATOM    151  H   UNK A   1       8.658   0.477   3.987  1.00  0.00    +0.034 HD
ATOM    152  H   UNK A   1       8.147   1.245   2.512  1.00  0.00    +0.034 HD
ATOM    153  H   UNK A   1       9.771   1.686   0.666  1.00  0.00    +0.063 HD
ATOM    154  H   UNK A   1      12.141   2.238   0.104  1.00  0.00    +0.066 HD
ATOM    155  H   UNK A   1      14.535   0.730   1.802  1.00  0.00    +0.293 HD
ATOM    156  H   UNK A   1      13.362   0.722   3.951  1.00  0.00    +0.066 HD
ATOM    157  H   UNK A   1      11.013   0.179   4.473  1.00  0.00    +0.063 HD
ATOM    158  H   UNK A   1      -4.463  -6.297  -1.519  1.00  0.00    +0.068 HD
ATOM    159  H   UNK A   1      -4.724  -8.332  -3.829  1.00  0.00    +0.059 HD
ATOM    160  H   UNK A   1      -3.584  -8.481  -2.486  1.00  0.00    +0.059 HD
ATOM    161  H   UNK A   1      -6.203  -8.002  -1.849  1.00  0.00    +0.210 HD
ATOM    162  H   UNK A   1      11.328  -2.987   4.488  1.00  0.00    +0.065 HD
ATOM    163  H   UNK A   1      10.859  -5.053   2.265  1.00  0.00    +0.026 HD
ATOM    164  H   UNK A   1      11.522  -5.393   3.869  1.00  0.00    +0.026 HD
ATOM    165  H   UNK A   1       9.852  -4.831   3.703  1.00  0.00    +0.026 HD
ATOM    166  H   UNK A   1      -1.758  -4.120  -4.014  1.00  0.00    +0.068 HD
ATOM    167  H   UNK A   1      -0.332  -2.734  -2.996  1.00  0.00    +0.041 HD
ATOM    168  H   UNK A   1      -1.371  -3.107  -1.620  1.00  0.00    +0.041 HD
ATOM    169  H   UNK A   1       0.948  -6.874  -3.713  1.00  0.00    +0.296 HD
ATOM    170  H   UNK A   1      15.570  -2.765   4.701  1.00  0.00    +0.064 HD
ATOM    171  H   UNK A   1      15.341  -3.837   3.321  1.00  0.00    +0.064 HD
ATOM    172  H   UNK A   1      13.973  -1.394   2.423  1.00  0.00    +0.296 HD
ATOM    173  H   UNK A   1       2.125  -0.449  -5.528  1.00  0.00    +0.063 HD
ATOM    174  H   UNK A   1       1.005   1.601  -4.854  1.00  0.00    +0.063 HD
ATOM    175  H   UNK A   1       0.579   2.659  -1.368  1.00  0.00    +0.043 HD
ATOM    176  H   UNK A   1      -0.947   2.060  -2.099  1.00  0.00    +0.043 HD
ATOM    177  H   UNK A   1       0.700   0.134  -0.827  1.00  0.00    +0.063 HD
ATOM    178  H   UNK A   1       2.926  -2.740  -1.463  1.00  0.00    +0.058 HD
ATOM    179  H   UNK A   1       3.008  -2.540  -5.136  1.00  0.00    +0.028 HD
ATOM    180  H   UNK A   1       2.268  -3.497  -3.865  1.00  0.00    +0.028 HD
ATOM    181  H   UNK A   1       3.814  -2.648  -3.573  1.00  0.00    +0.028 HD
ENDROOT
TORSDOF 0