MODEL 1
REMARK VINA RESULT:      -3.3      0.000      0.000
REMARK  Generated by RDKit with Gasteiger charges
REMARK  --------------------------------------------------
ROOT
ATOM      1  N   UNK A   1      -1.955  13.126   3.243  1.00  0.00    -0.131 N 
ATOM      2  C   UNK A   1      -2.043  13.684   1.876  1.00  0.00    +0.121 C 
ATOM      3  C   UNK A   1      -1.547  15.127   1.943  1.00  0.00    -0.037 C 
ATOM      4  C   UNK A   1      -1.177  12.823   0.929  1.00  0.00    +0.262 C 
ATOM      5  O   UNK A   1      -0.351  12.011   1.355  1.00  0.00    -0.271 OA
ATOM      6  N   UNK A   1      -1.330  13.137  -0.365  1.00  0.00    -0.236 N 
ATOM      7  C   UNK A   1      -2.632  12.702  -0.970  1.00  0.00    +0.141 C 
ATOM      8  C   UNK A   1      -3.316  13.809  -1.835  1.00  0.00    +0.025 C 
ATOM      9  S   UNK A   1      -4.070  15.198  -0.877  1.00  0.00    -0.154 S 
ATOM     10  C   UNK A   1      -2.342  11.543  -1.969  1.00  0.00    +0.249 C 
ATOM     11  O   UNK A   1      -1.586  11.677  -2.936  1.00  0.00    -0.272 OA
ATOM     12  N   UNK A   1      -3.031  10.344  -1.707  1.00  0.00    -0.329 N 
ATOM     13  C   UNK A   1      -2.786   9.724  -0.426  1.00  0.00    +0.021 C 
ATOM     14  C   UNK A   1      -1.802   8.592  -0.735  1.00  0.00    -0.033 C 
ATOM     15  C   UNK A   1      -1.789   8.461  -2.266  1.00  0.00    -0.022 C 
ATOM     16  C   UNK A   1      -3.005   9.285  -2.732  1.00  0.00    +0.113 C 
ATOM     17  C   UNK A   1      -4.248   8.314  -2.740  1.00  0.00    +0.264 C 
ATOM     18  O   UNK A   1      -4.473   7.608  -1.745  1.00  0.00    -0.271 OA
ATOM     19  N   UNK A   1      -4.945   8.173  -3.881  1.00  0.00    -0.234 N 
ATOM     20  C   UNK A   1      -5.108   9.358  -4.794  1.00  0.00    +0.157 C 
ATOM     21  C   UNK A   1      -4.248   9.144  -6.070  1.00  0.00    +0.075 C 
ATOM     22  O   UNK A   1      -4.115   7.729  -6.355  1.00  0.00    -0.394 OA
ATOM     23  C   UNK A   1      -6.595   9.563  -5.270  1.00  0.00    +0.269 C 
ATOM     24  O   UNK A   1      -7.373   8.616  -5.421  1.00  0.00    -0.270 OA
ATOM     25  N   UNK A   1      -6.813  10.870  -5.544  1.00  0.00    -0.236 N 
ATOM     26  C   UNK A   1      -8.245  11.358  -5.588  1.00  0.00    +0.138 C 
ATOM     27  C   UNK A   1      -8.976  11.173  -4.223  1.00  0.00    +0.004 C 
ATOM     28  C   UNK A   1      -8.382  11.743  -2.947  1.00  0.00    -0.045 C 
ATOM     29  C   UNK A   1      -8.766  13.004  -2.476  1.00  0.00    -0.059 C 
ATOM     30  C   UNK A   1      -8.281  13.487  -1.257  1.00  0.00    -0.062 C 
ATOM     31  C   UNK A   1      -7.383  12.728  -0.504  1.00  0.00    -0.062 C 
ATOM     32  C   UNK A   1      -6.962  11.489  -0.980  1.00  0.00    -0.062 C 
ATOM     33  C   UNK A   1      -7.466  10.999  -2.188  1.00  0.00    -0.059 C 
ATOM     34  C   UNK A   1      -8.406  12.805  -6.282  1.00  0.00    +0.267 C 
ATOM     35  O   UNK A   1      -7.717  13.087  -7.273  1.00  0.00    -0.270 OA
ATOM     36  N   UNK A   1      -9.431  13.551  -5.777  1.00  0.00    -0.236 N 
ATOM     37  C   UNK A   1      -9.812  14.835  -6.513  1.00  0.00    +0.131 C 
ATOM     38  C   UNK A   1     -10.699  14.433  -7.712  1.00  0.00    -0.033 C 
ATOM     39  C   UNK A   1     -10.601  15.939  -5.628  1.00  0.00    +0.266 C 
ATOM     40  O   UNK A   1     -10.936  15.719  -4.460  1.00  0.00    -0.270 OA
ATOM     41  N   UNK A   1     -10.861  17.075  -6.345  1.00  0.00    -0.235 N 
ATOM     42  C   UNK A   1     -11.267  18.348  -5.586  1.00  0.00    +0.143 C 
ATOM     43  C   UNK A   1     -10.130  19.426  -5.683  1.00  0.00    +0.027 C 
ATOM     44  S   UNK A   1      -8.465  19.114  -4.907  1.00  0.00    -0.140 S 
ATOM     45  C   UNK A   1     -12.601  19.065  -6.190  1.00  0.00    +0.267 C 
ATOM     46  O   UNK A   1     -13.208  18.636  -7.176  1.00  0.00    -0.270 OA
ATOM     47  N   UNK A   1     -12.996  20.128  -5.425  1.00  0.00    -0.233 N 
ATOM     48  C   UNK A   1     -14.001  21.160  -6.003  1.00  0.00    +0.160 C 
ATOM     49  C   UNK A   1     -15.423  20.883  -5.404  1.00  0.00    +0.083 C 
ATOM     50  C   UNK A   1     -16.564  21.176  -6.371  1.00  0.00    -0.036 C 
ATOM     51  O   UNK A   1     -15.573  19.492  -5.015  1.00  0.00    -0.391 OA
ATOM     52  C   UNK A   1     -13.549  22.679  -5.656  1.00  0.00    +0.269 C 
ATOM     53  O   UNK A   1     -12.375  22.920  -5.372  1.00  0.00    -0.270 OA
ATOM     54  N   UNK A   1     -14.518  23.628  -5.849  1.00  0.00    -0.236 N 
ATOM     55  C   UNK A   1     -14.384  24.926  -5.048  1.00  0.00    +0.135 C 
ATOM     56  C   UNK A   1     -13.087  25.799  -5.345  1.00  0.00    -0.012 C 
ATOM     57  C   UNK A   1     -12.055  25.885  -4.163  1.00  0.00    +0.031 C 
ATOM     58  C   UNK A   1     -10.826  26.852  -4.343  1.00  0.00    +0.242 C 
ATOM     59  O   UNK A   1     -10.806  27.754  -5.187  1.00  0.00    -0.273 OA
ATOM     60  C   UNK A   1     -15.713  25.869  -5.037  1.00  0.00    +0.266 C 
ATOM     61  O   UNK A   1     -16.095  26.332  -3.949  1.00  0.00    -0.270 OA
ATOM     62  N   UNK A   1      -9.876  26.662  -3.394  1.00  0.00    -0.238 N 
ATOM     63  C   UNK A   1      -8.527  26.344  -3.954  1.00  0.00    +0.131 C 
ATOM     64  C   UNK A   1      -7.756  27.634  -4.270  1.00  0.00    -0.033 C 
ATOM     65  C   UNK A   1      -7.626  25.502  -2.970  1.00  0.00    +0.266 C 
ATOM     66  O   UNK A   1      -7.209  25.952  -1.897  1.00  0.00    -0.270 OA
ATOM     67  N   UNK A   1     -16.311  26.142  -6.230  1.00  0.00    -0.236 N 
ATOM     68  C   UNK A   1     -16.963  27.499  -6.335  1.00  0.00    +0.136 C 
ATOM     69  C   UNK A   1     -16.354  28.275  -7.558  1.00  0.00    -0.015 C 
ATOM     70  C   UNK A   1     -14.823  28.351  -7.522  1.00  0.00    -0.060 C 
ATOM     71  C   UNK A   1     -16.900  29.711  -7.645  1.00  0.00    -0.060 C 
ATOM     72  C   UNK A   1     -18.524  27.443  -6.572  1.00  0.00    +0.266 C 
ATOM     73  O   UNK A   1     -19.046  26.971  -7.586  1.00  0.00    -0.270 OA
ATOM     74  N   UNK A   1      -7.264  24.331  -3.528  1.00  0.00    -0.233 N 
ATOM     75  C   UNK A   1      -6.864  23.241  -2.596  1.00  0.00    +0.160 C 
ATOM     76  C   UNK A   1      -7.185  21.810  -3.164  1.00  0.00    +0.028 C 
ATOM     77  S   UNK A   1      -8.838  21.199  -2.651  1.00  0.00    -0.140 S 
ATOM     78  C   UNK A   1      -5.362  23.319  -2.387  1.00  0.00    +0.329 C 
ATOM     79  O   UNK A   1      -4.749  23.462  -1.331  1.00  0.00    -0.250 OA
ATOM     80  O   UNK A   1      -4.616  23.149  -3.509  1.00  0.00    -0.480 OA
ATOM     81  N   UNK A   1     -19.198  28.123  -5.615  1.00  0.00    -0.238 N 
ATOM     82  C   UNK A   1     -20.640  28.266  -5.888  1.00  0.00    +0.140 C 
ATOM     83  C   UNK A   1     -21.261  28.888  -4.649  1.00  0.00    +0.325 C 
ATOM     84  O   UNK A   1     -22.404  29.330  -4.572  1.00  0.00    -0.250 OA
ATOM     85  O   UNK A   1     -20.404  28.890  -3.595  1.00  0.00    -0.480 OA
ATOM     86  C   UNK A   1      -7.831  17.602   0.161  1.00  0.00    -0.059 C 
ATOM     87  C   UNK A   1      -6.775  16.790  -0.246  1.00  0.00    -0.058 C 
ATOM     88  C   UNK A   1      -6.348  16.784  -1.576  1.00  0.00    -0.038 C 
ATOM     89  C   UNK A   1      -5.347  15.759  -2.108  1.00  0.00    +0.019 C 
ATOM     90  C   UNK A   1      -7.009  17.653  -2.483  1.00  0.00    -0.053 C 
ATOM     91  C   UNK A   1      -8.093  18.498  -2.108  1.00  0.00    -0.022 C 
ATOM     92  C   UNK A   1      -8.867  19.381  -3.143  1.00  0.00    +0.076 C 
ATOM     93  C   UNK A   1      -8.522  18.421  -0.755  1.00  0.00    -0.046 C 
ATOM     94  C   UNK A   1      -9.722  19.170  -0.229  1.00  0.00    -0.039 C 
ATOM     95  H   UNK A   1      -3.095  13.647   1.584  1.00  0.00    +0.060 HD
ATOM     96  H   UNK A   1      -0.510  15.180   2.297  1.00  0.00    +0.025 HD
ATOM     97  H   UNK A   1      -2.171  15.721   2.620  1.00  0.00    +0.025 HD
ATOM     98  H   UNK A   1      -1.572  15.612   0.960  1.00  0.00    +0.025 HD
ATOM     99  H   UNK A   1      -3.369  12.355  -0.234  1.00  0.00    +0.067 HD
ATOM    100  H   UNK A   1      -2.601  14.250  -2.539  1.00  0.00    +0.041 HD
ATOM    101  H   UNK A   1      -4.114  13.344  -2.427  1.00  0.00    +0.041 HD
ATOM    102  H   UNK A   1      -3.733   9.332  -0.042  1.00  0.00    +0.049 HD
ATOM    103  H   UNK A   1      -2.376  10.401   0.322  1.00  0.00    +0.049 HD
ATOM    104  H   UNK A   1      -2.108   7.661  -0.248  1.00  0.00    +0.029 HD
ATOM    105  H   UNK A   1      -0.798   8.835  -0.366  1.00  0.00    +0.029 HD
ATOM    106  H   UNK A   1      -0.872   8.921  -2.655  1.00  0.00    +0.029 HD
ATOM    107  H   UNK A   1      -1.801   7.418  -2.593  1.00  0.00    +0.029 HD
ATOM    108  H   UNK A   1      -2.798   9.694  -3.724  1.00  0.00    +0.064 HD
ATOM    109  H   UNK A   1      -4.818  10.304  -4.311  1.00  0.00    +0.068 HD
ATOM    110  H   UNK A   1      -3.231   9.525  -5.917  1.00  0.00    +0.059 HD
ATOM    111  H   UNK A   1      -4.665   9.637  -6.956  1.00  0.00    +0.059 HD
ATOM    112  H   UNK A   1      -4.636   7.375  -5.589  1.00  0.00    +0.210 HD
ATOM    113  H   UNK A   1      -8.810  10.719  -6.290  1.00  0.00    +0.066 HD
ATOM    114  H   UNK A   1     -10.013  11.522  -4.308  1.00  0.00    +0.034 HD
ATOM    115  H   UNK A   1      -9.094  10.090  -4.051  1.00  0.00    +0.034 HD
ATOM    116  H   UNK A   1      -9.427  13.630  -3.084  1.00  0.00    +0.063 HD
ATOM    117  H   UNK A   1      -8.582  14.481  -0.940  1.00  0.00    +0.062 HD
ATOM    118  H   UNK A   1      -7.007  13.119   0.435  1.00  0.00    +0.062 HD
ATOM    119  H   UNK A   1      -6.233  10.895  -0.436  1.00  0.00    +0.062 HD
ATOM    120  H   UNK A   1      -7.127  10.037  -2.568  1.00  0.00    +0.063 HD
ATOM    121  H   UNK A   1      -8.912  15.344  -6.890  1.00  0.00    +0.065 HD
ATOM    122  H   UNK A   1     -10.168  13.729  -8.358  1.00  0.00    +0.026 HD
ATOM    123  H   UNK A   1     -11.628  13.958  -7.371  1.00  0.00    +0.026 HD
ATOM    124  H   UNK A   1     -10.974  15.296  -8.325  1.00  0.00    +0.026 HD
ATOM    125  H   UNK A   1     -11.493  18.137  -4.533  1.00  0.00    +0.067 HD
ATOM    126  H   UNK A   1      -9.916  19.602  -6.746  1.00  0.00    +0.041 HD
ATOM    127  H   UNK A   1     -10.464  20.392  -5.289  1.00  0.00    +0.041 HD
ATOM    128  H   UNK A   1     -14.025  21.104  -7.100  1.00  0.00    +0.069 HD
ATOM    129  H   UNK A   1     -15.555  21.446  -4.475  1.00  0.00    +0.063 HD
ATOM    130  H   UNK A   1     -17.524  20.904  -5.915  1.00  0.00    +0.026 HD
ATOM    131  H   UNK A   1     -16.613  22.229  -6.662  1.00  0.00    +0.026 HD
ATOM    132  H   UNK A   1     -16.473  20.572  -7.279  1.00  0.00    +0.026 HD
ATOM    133  H   UNK A   1     -14.618  19.224  -5.046  1.00  0.00    +0.211 HD
ATOM    134  H   UNK A   1     -14.317  24.625  -3.987  1.00  0.00    +0.066 HD
ATOM    135  H   UNK A   1     -13.389  26.826  -5.564  1.00  0.00    +0.030 HD
ATOM    136  H   UNK A   1     -12.572  25.435  -6.241  1.00  0.00    +0.030 HD
ATOM    137  H   UNK A   1     -12.587  26.227  -3.268  1.00  0.00    +0.037 HD
ATOM    138  H   UNK A   1     -11.671  24.882  -3.959  1.00  0.00    +0.037 HD
ATOM    139  H   UNK A   1      -8.620  25.777  -4.891  1.00  0.00    +0.065 HD
ATOM    140  H   UNK A   1      -7.702  28.295  -3.397  1.00  0.00    +0.026 HD
ATOM    141  H   UNK A   1      -8.227  28.194  -5.085  1.00  0.00    +0.026 HD
ATOM    142  H   UNK A   1      -6.731  27.406  -4.576  1.00  0.00    +0.026 HD
ATOM    143  H   UNK A   1     -16.769  28.116  -5.445  1.00  0.00    +0.066 HD
ATOM    144  H   UNK A   1     -16.631  27.757  -8.489  1.00  0.00    +0.032 HD
ATOM    145  H   UNK A   1     -14.446  28.959  -8.350  1.00  0.00    +0.023 HD
ATOM    146  H   UNK A   1     -14.374  27.362  -7.632  1.00  0.00    +0.023 HD
ATOM    147  H   UNK A   1     -14.472  28.800  -6.590  1.00  0.00    +0.023 HD
ATOM    148  H   UNK A   1     -16.445  30.246  -8.485  1.00  0.00    +0.023 HD
ATOM    149  H   UNK A   1     -16.683  30.272  -6.732  1.00  0.00    +0.023 HD
ATOM    150  H   UNK A   1     -17.981  29.728  -7.808  1.00  0.00    +0.023 HD
ATOM    151  H   UNK A   1      -7.317  23.339  -1.599  1.00  0.00    +0.068 HD
ATOM    152  H   UNK A   1      -6.452  21.086  -2.794  1.00  0.00    +0.041 HD
ATOM    153  H   UNK A   1      -7.139  21.816  -4.258  1.00  0.00    +0.041 HD
ATOM    154  H   UNK A   1      -3.731  23.291  -3.144  1.00  0.00    +0.296 HD
ATOM    155  H   UNK A   1     -20.832  28.937  -6.731  1.00  0.00    +0.064 HD
ATOM    156  H   UNK A   1     -21.144  27.307  -6.053  1.00  0.00    +0.064 HD
ATOM    157  H   UNK A   1     -19.578  28.474  -4.010  1.00  0.00    +0.296 HD
ATOM    158  H   UNK A   1      -8.160  17.554   1.195  1.00  0.00    +0.063 HD
ATOM    159  H   UNK A   1      -6.333  16.113   0.479  1.00  0.00    +0.063 HD
ATOM    160  H   UNK A   1      -4.804  16.182  -2.963  1.00  0.00    +0.043 HD
ATOM    161  H   UNK A   1      -5.913  14.881  -2.445  1.00  0.00    +0.043 HD
ATOM    162  H   UNK A   1      -6.714  17.607  -3.531  1.00  0.00    +0.063 HD
ATOM    163  H   UNK A   1      -9.913  19.071  -3.046  1.00  0.00    +0.058 HD
ATOM    164  H   UNK A   1     -10.535  19.216  -0.958  1.00  0.00    +0.028 HD
ATOM    165  H   UNK A   1      -9.437  20.176   0.084  1.00  0.00    +0.028 HD
ATOM    166  H   UNK A   1     -10.140  18.658   0.645  1.00  0.00    +0.028 HD
ENDROOT
TORSDOF 0
ENDMDL
