REMARK  Generated by RDKit with Gasteiger charges
REMARK  --------------------------------------------------
ROOT
ATOM      1  N   UNK A   1      -6.929   6.632  -2.279  1.00  0.00    -0.131 N 
ATOM      2  C   UNK A   1      -7.102   5.570  -3.293  1.00  0.00    +0.121 C 
ATOM      3  C   UNK A   1      -8.593   5.459  -3.581  1.00  0.00    -0.037 C 
ATOM      4  C   UNK A   1      -6.351   6.025  -4.557  1.00  0.00    +0.262 C 
ATOM      5  O   UNK A   1      -6.542   7.177  -4.988  1.00  0.00    -0.271 OA
ATOM      6  N   UNK A   1      -5.464   5.196  -5.126  1.00  0.00    -0.236 N 
ATOM      7  C   UNK A   1      -5.426   3.715  -4.852  1.00  0.00    +0.143 C 
ATOM      8  C   UNK A   1      -4.505   3.306  -3.632  1.00  0.00    +0.025 C 
ATOM      9  S   UNK A   1      -2.659   3.289  -4.010  1.00  0.00    -0.154 S 
ATOM     10  C   UNK A   1      -6.814   2.953  -5.027  1.00  0.00    +0.267 C 
ATOM     11  O   UNK A   1      -7.418   3.005  -6.110  1.00  0.00    -0.270 OA
ATOM     12  N   UNK A   1      -7.236   2.308  -3.922  1.00  0.00    -0.236 N 
ATOM     13  C   UNK A   1      -7.689   0.869  -4.120  1.00  0.00    +0.136 C 
ATOM     14  C   UNK A   1      -6.435  -0.013  -4.469  1.00  0.00    -0.015 C 
ATOM     15  C   UNK A   1      -6.776  -1.235  -5.325  1.00  0.00    -0.060 C 
ATOM     16  C   UNK A   1      -5.580  -0.418  -3.266  1.00  0.00    -0.060 C 
ATOM     17  C   UNK A   1      -8.584   0.396  -2.869  1.00  0.00    +0.267 C 
ATOM     18  O   UNK A   1      -9.286   1.197  -2.236  1.00  0.00    -0.270 OA
ATOM     19  N   UNK A   1      -8.635  -0.952  -2.734  1.00  0.00    -0.236 N 
ATOM     20  C   UNK A   1      -8.674  -1.484  -1.312  1.00  0.00    +0.134 C 
ATOM     21  C   UNK A   1     -10.130  -1.378  -0.783  1.00  0.00    -0.021 C 
ATOM     22  C   UNK A   1     -10.311  -1.853   0.662  1.00  0.00    -0.050 C 
ATOM     23  C   UNK A   1     -11.471  -1.121   1.353  1.00  0.00    -0.041 C 
ATOM     24  C   UNK A   1     -11.073   0.269   1.850  1.00  0.00    -0.008 C 
ATOM     25  N   UNK A   1     -10.350   0.212   3.131  1.00  0.00    -0.330 N 
ATOM     26  C   UNK A   1      -8.249  -3.018  -1.287  1.00  0.00    +0.266 C 
ATOM     27  O   UNK A   1      -8.812  -3.813  -2.061  1.00  0.00    -0.270 OA
ATOM     28  N   UNK A   1      -7.479  -3.458  -0.247  1.00  0.00    -0.236 N 
ATOM     29  C   UNK A   1      -6.203  -2.722   0.134  1.00  0.00    +0.138 C 
ATOM     30  C   UNK A   1      -6.404  -1.954   1.480  1.00  0.00    +0.004 C 
ATOM     31  C   UNK A   1      -6.381  -2.789   2.754  1.00  0.00    -0.045 C 
ATOM     32  C   UNK A   1      -5.215  -2.835   3.527  1.00  0.00    -0.055 C 
ATOM     33  C   UNK A   1      -5.091  -3.736   4.580  1.00  0.00    -0.020 C 
ATOM     34  C   UNK A   1      -6.142  -4.597   4.872  1.00  0.00    +0.115 C 
ATOM     35  O   UNK A   1      -5.956  -5.586   5.804  1.00  0.00    -0.508 OA
ATOM     36  C   UNK A   1      -7.329  -4.547   4.150  1.00  0.00    -0.020 C 
ATOM     37  C   UNK A   1      -7.442  -3.642   3.089  1.00  0.00    -0.055 C 
ATOM     38  C   UNK A   1      -4.875  -3.608   0.264  1.00  0.00    +0.267 C 
ATOM     39  O   UNK A   1      -4.887  -4.839   0.171  1.00  0.00    -0.270 OA
ATOM     40  N   UNK A   1      -3.788  -2.823   0.513  1.00  0.00    -0.236 N 
ATOM     41  C   UNK A   1      -2.411  -3.453   0.513  1.00  0.00    +0.134 C 
ATOM     42  C   UNK A   1      -2.003  -3.698  -0.966  1.00  0.00    -0.020 C 
ATOM     43  C   UNK A   1      -0.934  -4.771  -1.199  1.00  0.00    -0.033 C 
ATOM     44  C   UNK A   1      -1.337  -6.161  -0.707  1.00  0.00    +0.018 C 
ATOM     45  N   UNK A   1      -0.157  -7.072  -0.785  1.00  0.00    -0.357 N 
ATOM     46  C   UNK A   1      -0.102  -8.086   0.111  1.00  0.00    +0.185 C 
ATOM     47  N   UNK A   1      -0.979  -9.028   0.226  1.00  0.00    -0.270 N 
ATOM     48  N   UNK A   1       1.045  -8.132   0.829  1.00  0.00    -0.370 N 
ATOM     49  C   UNK A   1      -1.300  -2.516   1.218  1.00  0.00    +0.266 C 
ATOM     50  O   UNK A   1      -1.519  -1.323   1.434  1.00  0.00    -0.270 OA
ATOM     51  N   UNK A   1      -0.145  -3.193   1.469  1.00  0.00    -0.235 N 
ATOM     52  C   UNK A   1       1.196  -2.453   1.631  1.00  0.00    +0.143 C 
ATOM     53  C   UNK A   1       1.338  -1.124   0.788  1.00  0.00    +0.027 C 
ATOM     54  S   UNK A   1       2.926  -1.035  -0.248  1.00  0.00    -0.140 S 
ATOM     55  C   UNK A   1       1.629  -2.260   3.163  1.00  0.00    +0.267 C 
ATOM     56  O   UNK A   1       0.910  -1.652   3.962  1.00  0.00    -0.270 OA
ATOM     57  N   UNK A   1       2.840  -2.833   3.462  1.00  0.00    -0.236 N 
ATOM     58  C   UNK A   1       3.438  -2.428   4.798  1.00  0.00    +0.131 C 
ATOM     59  C   UNK A   1       2.799  -3.272   5.913  1.00  0.00    -0.033 C 
ATOM     60  C   UNK A   1       5.010  -2.663   4.918  1.00  0.00    +0.266 C 
ATOM     61  O   UNK A   1       5.539  -3.724   4.554  1.00  0.00    -0.270 OA
ATOM     62  N   UNK A   1       5.666  -1.716   5.656  1.00  0.00    -0.236 N 
ATOM     63  C   UNK A   1       6.375  -0.692   4.787  1.00  0.00    +0.131 C 
ATOM     64  C   UNK A   1       5.384   0.424   4.399  1.00  0.00    -0.033 C 
ATOM     65  C   UNK A   1       7.623   0.029   5.442  1.00  0.00    +0.266 C 
ATOM     66  O   UNK A   1       7.780   0.164   6.663  1.00  0.00    -0.270 OA
ATOM     67  N   UNK A   1       8.456   0.512   4.490  1.00  0.00    -0.236 N 
ATOM     68  C   UNK A   1       9.105   1.833   4.774  1.00  0.00    +0.143 C 
ATOM     69  C   UNK A   1      10.559   1.567   5.247  1.00  0.00    +0.058 C 
ATOM     70  C   UNK A   1      11.505   1.008   4.186  1.00  0.00    +0.220 C 
ATOM     71  O   UNK A   1      12.740   1.038   4.330  1.00  0.00    -0.275 OA
ATOM     72  N   UNK A   1      10.923   0.387   3.111  1.00  0.00    -0.370 N 
ATOM     73  C   UNK A   1       9.202   2.944   3.657  1.00  0.00    +0.267 C 
ATOM     74  O   UNK A   1       9.616   4.067   3.997  1.00  0.00    -0.270 OA
ATOM     75  N   UNK A   1       8.967   2.522   2.405  1.00  0.00    -0.236 N 
ATOM     76  C   UNK A   1       8.898   3.559   1.322  1.00  0.00    +0.134 C 
ATOM     77  C   UNK A   1      10.274   3.707   0.627  1.00  0.00    -0.021 C 
ATOM     78  C   UNK A   1      11.232   4.724   1.259  1.00  0.00    -0.050 C 
ATOM     79  C   UNK A   1      10.707   6.155   1.422  1.00  0.00    -0.041 C 
ATOM     80  C   UNK A   1       9.969   6.739   0.217  1.00  0.00    -0.008 C 
ATOM     81  N   UNK A   1      10.814   6.871  -0.994  1.00  0.00    -0.330 N 
ATOM     82  C   UNK A   1       7.816   3.384   0.167  1.00  0.00    +0.266 C 
ATOM     83  O   UNK A   1       7.075   4.339  -0.102  1.00  0.00    -0.270 OA
ATOM     84  N   UNK A   1       7.943   2.243  -0.541  1.00  0.00    -0.235 N 
ATOM     85  C   UNK A   1       6.970   1.947  -1.658  1.00  0.00    +0.143 C 
ATOM     86  C   UNK A   1       5.449   1.927  -1.207  1.00  0.00    +0.027 C 
ATOM     87  S   UNK A   1       4.330   0.857  -2.286  1.00  0.00    -0.140 S 
ATOM     88  C   UNK A   1       7.299   2.747  -2.976  1.00  0.00    +0.267 C 
ATOM     89  O   UNK A   1       6.500   3.470  -3.572  1.00  0.00    -0.270 OA
ATOM     90  N   UNK A   1       8.491   2.418  -3.525  1.00  0.00    -0.238 N 
ATOM     91  C   UNK A   1       9.113   3.489  -4.326  1.00  0.00    +0.140 C 
ATOM     92  C   UNK A   1       8.756   3.383  -5.799  1.00  0.00    +0.325 C 
ATOM     93  O   UNK A   1       9.539   3.614  -6.723  1.00  0.00    -0.250 OA
ATOM     94  O   UNK A   1       7.459   3.093  -6.038  1.00  0.00    -0.480 OA
ATOM     95  C   UNK A   1       0.184  -0.331  -4.098  1.00  0.00    -0.059 C 
ATOM     96  C   UNK A   1      -0.853   0.571  -3.861  1.00  0.00    -0.058 C 
ATOM     97  C   UNK A   1      -0.767   1.495  -2.822  1.00  0.00    -0.038 C 
ATOM     98  C   UNK A   1      -1.987   2.374  -2.518  1.00  0.00    +0.019 C 
ATOM     99  C   UNK A   1       0.399   1.450  -1.991  1.00  0.00    -0.053 C 
ATOM    100  C   UNK A   1       1.484   0.532  -2.210  1.00  0.00    -0.022 C 
ATOM    101  C   UNK A   1       2.715   0.553  -1.235  1.00  0.00    +0.076 C 
ATOM    102  C   UNK A   1       1.350  -0.372  -3.301  1.00  0.00    -0.046 C 
ATOM    103  C   UNK A   1       2.381  -1.394  -3.696  1.00  0.00    -0.039 C 
ATOM    104  H   UNK A   1      -6.733   4.647  -2.860  1.00  0.00    +0.060 HD
ATOM    105  H   UNK A   1      -9.135   5.075  -2.705  1.00  0.00    +0.025 HD
ATOM    106  H   UNK A   1      -8.788   4.795  -4.433  1.00  0.00    +0.025 HD
ATOM    107  H   UNK A   1      -9.028   6.426  -3.850  1.00  0.00    +0.025 HD
ATOM    108  H   UNK A   1      -4.874   3.294  -5.711  1.00  0.00    +0.067 HD
ATOM    109  H   UNK A   1      -4.738   2.296  -3.310  1.00  0.00    +0.041 HD
ATOM    110  H   UNK A   1      -4.640   3.985  -2.782  1.00  0.00    +0.041 HD
ATOM    111  H   UNK A   1      -8.398   0.830  -4.956  1.00  0.00    +0.066 HD
ATOM    112  H   UNK A   1      -5.772   0.588  -5.111  1.00  0.00    +0.032 HD
ATOM    113  H   UNK A   1      -7.411  -1.953  -4.796  1.00  0.00    +0.023 HD
ATOM    114  H   UNK A   1      -7.305  -0.938  -6.237  1.00  0.00    +0.023 HD
ATOM    115  H   UNK A   1      -5.862  -1.752  -5.631  1.00  0.00    +0.023 HD
ATOM    116  H   UNK A   1      -5.923  -1.349  -2.806  1.00  0.00    +0.023 HD
ATOM    117  H   UNK A   1      -5.556   0.350  -2.495  1.00  0.00    +0.023 HD
ATOM    118  H   UNK A   1      -4.555  -0.598  -3.604  1.00  0.00    +0.023 HD
ATOM    119  H   UNK A   1      -8.016  -0.906  -0.661  1.00  0.00    +0.066 HD
ATOM    120  H   UNK A   1     -10.815  -1.948  -1.429  1.00  0.00    +0.029 HD
ATOM    121  H   UNK A   1     -10.463  -0.339  -0.852  1.00  0.00    +0.029 HD
ATOM    122  H   UNK A   1     -10.523  -2.929   0.659  1.00  0.00    +0.027 HD
ATOM    123  H   UNK A   1      -9.399  -1.717   1.241  1.00  0.00    +0.027 HD
ATOM    124  H   UNK A   1     -12.314  -1.032   0.652  1.00  0.00    +0.028 HD
ATOM    125  H   UNK A   1     -11.832  -1.730   2.194  1.00  0.00    +0.028 HD
ATOM    126  H   UNK A   1     -10.455   0.791   1.112  1.00  0.00    +0.043 HD
ATOM    127  H   UNK A   1     -11.982   0.857   1.997  1.00  0.00    +0.043 HD
ATOM    128  H   UNK A   1      -9.827   1.086   3.215  1.00  0.00    +0.118 HD
ATOM    129  H   UNK A   1      -9.586  -0.465   2.993  1.00  0.00    +0.118 HD
ATOM    130  H   UNK A   1      -5.976  -1.970  -0.635  1.00  0.00    +0.066 HD
ATOM    131  H   UNK A   1      -5.627  -1.185   1.558  1.00  0.00    +0.034 HD
ATOM    132  H   UNK A   1      -7.334  -1.379   1.468  1.00  0.00    +0.034 HD
ATOM    133  H   UNK A   1      -4.346  -2.238   3.236  1.00  0.00    +0.063 HD
ATOM    134  H   UNK A   1      -4.127  -3.783   5.075  1.00  0.00    +0.066 HD
ATOM    135  H   UNK A   1      -4.997  -5.769   5.708  1.00  0.00    +0.293 HD
ATOM    136  H   UNK A   1      -8.126  -5.262   4.309  1.00  0.00    +0.066 HD
ATOM    137  H   UNK A   1      -8.301  -3.671   2.419  1.00  0.00    +0.063 HD
ATOM    138  H   UNK A   1      -2.435  -4.381   1.092  1.00  0.00    +0.066 HD
ATOM    139  H   UNK A   1      -2.881  -3.973  -1.567  1.00  0.00    +0.029 HD
ATOM    140  H   UNK A   1      -1.638  -2.757  -1.406  1.00  0.00    +0.029 HD
ATOM    141  H   UNK A   1      -0.731  -4.832  -2.279  1.00  0.00    +0.029 HD
ATOM    142  H   UNK A   1       0.017  -4.466  -0.745  1.00  0.00    +0.029 HD
ATOM    143  H   UNK A   1      -1.683  -6.131   0.331  1.00  0.00    +0.049 HD
ATOM    144  H   UNK A   1      -2.149  -6.553  -1.328  1.00  0.00    +0.049 HD
ATOM    145  H   UNK A   1       0.645  -6.451  -0.669  1.00  0.00    +0.163 HD
ATOM    146  H   UNK A   1      -0.666  -9.640   0.976  1.00  0.00    +0.191 HD
ATOM    147  H   UNK A   1       1.552  -7.243   0.794  1.00  0.00    +0.159 HD
ATOM    148  H   UNK A   1       0.819  -8.239   1.813  1.00  0.00    +0.159 HD
ATOM    149  H   UNK A   1       1.937  -3.155   1.211  1.00  0.00    +0.067 HD
ATOM    150  H   UNK A   1       1.340  -0.241   1.427  1.00  0.00    +0.041 HD
ATOM    151  H   UNK A   1       0.531  -1.030   0.054  1.00  0.00    +0.041 HD
ATOM    152  H   UNK A   1       3.241  -1.369   5.012  1.00  0.00    +0.065 HD
ATOM    153  H   UNK A   1       3.135  -2.941   6.900  1.00  0.00    +0.026 HD
ATOM    154  H   UNK A   1       3.068  -4.327   5.810  1.00  0.00    +0.026 HD
ATOM    155  H   UNK A   1       1.710  -3.214   5.898  1.00  0.00    +0.026 HD
ATOM    156  H   UNK A   1       6.740  -1.170   3.871  1.00  0.00    +0.065 HD
ATOM    157  H   UNK A   1       5.873   1.212   3.819  1.00  0.00    +0.026 HD
ATOM    158  H   UNK A   1       4.559   0.050   3.790  1.00  0.00    +0.026 HD
ATOM    159  H   UNK A   1       4.951   0.882   5.298  1.00  0.00    +0.026 HD
ATOM    160  H   UNK A   1       8.566   2.344   5.590  1.00  0.00    +0.066 HD
ATOM    161  H   UNK A   1      10.566   0.856   6.083  1.00  0.00    +0.039 HD
ATOM    162  H   UNK A   1      11.011   2.499   5.616  1.00  0.00    +0.039 HD
ATOM    163  H   UNK A   1      10.426   1.099   2.534  1.00  0.00    +0.159 HD
ATOM    164  H   UNK A   1      10.012  -0.006   3.426  1.00  0.00    +0.159 HD
ATOM    165  H   UNK A   1       8.605   4.525   1.752  1.00  0.00    +0.066 HD
ATOM    166  H   UNK A   1      10.139   4.000  -0.424  1.00  0.00    +0.029 HD
ATOM    167  H   UNK A   1      10.796   2.736   0.595  1.00  0.00    +0.029 HD
ATOM    168  H   UNK A   1      11.553   4.363   2.242  1.00  0.00    +0.027 HD
ATOM    169  H   UNK A   1      12.142   4.756   0.643  1.00  0.00    +0.027 HD
ATOM    170  H   UNK A   1      11.559   6.805   1.674  1.00  0.00    +0.028 HD
ATOM    171  H   UNK A   1      10.025   6.203   2.276  1.00  0.00    +0.028 HD
ATOM    172  H   UNK A   1       9.594   7.738   0.461  1.00  0.00    +0.043 HD
ATOM    173  H   UNK A   1       9.102   6.124  -0.025  1.00  0.00    +0.043 HD
ATOM    174  H   UNK A   1      10.129   6.884  -1.761  1.00  0.00    +0.118 HD
ATOM    175  H   UNK A   1      11.209   5.930  -1.119  1.00  0.00    +0.118 HD
ATOM    176  H   UNK A   1       7.170   0.897  -1.940  1.00  0.00    +0.067 HD
ATOM    177  H   UNK A   1       5.026   2.931  -1.241  1.00  0.00    +0.041 HD
ATOM    178  H   UNK A   1       5.372   1.547  -0.179  1.00  0.00    +0.041 HD
ATOM    179  H   UNK A   1       8.865   4.509  -3.994  1.00  0.00    +0.064 HD
ATOM    180  H   UNK A   1      10.201   3.392  -4.261  1.00  0.00    +0.064 HD
ATOM    181  H   UNK A   1       7.055   2.990  -5.123  1.00  0.00    +0.296 HD
ATOM    182  H   UNK A   1       0.051  -1.043  -4.908  1.00  0.00    +0.063 HD
ATOM    183  H   UNK A   1      -1.758   0.514  -4.458  1.00  0.00    +0.063 HD
ATOM    184  H   UNK A   1      -1.719   3.144  -1.793  1.00  0.00    +0.043 HD
ATOM    185  H   UNK A   1      -2.780   1.744  -2.102  1.00  0.00    +0.043 HD
ATOM    186  H   UNK A   1       0.440   2.106  -1.124  1.00  0.00    +0.063 HD
ATOM    187  H   UNK A   1       2.631   1.401  -0.540  1.00  0.00    +0.058 HD
ATOM    188  H   UNK A   1       1.972  -2.093  -4.432  1.00  0.00    +0.028 HD
ATOM    189  H   UNK A   1       2.693  -2.024  -2.857  1.00  0.00    +0.028 HD
ATOM    190  H   UNK A   1       3.246  -0.921  -4.170  1.00  0.00    +0.028 HD
ENDROOT
TORSDOF 0