MODEL 1
REMARK VINA RESULT:      35.0      0.000      0.000
REMARK  Generated by RDKit with Gasteiger charges
REMARK  --------------------------------------------------
ROOT
ATOM      1  N   UNK A   1      -0.302  22.892  -3.873  1.00  0.00    -0.131 N 
ATOM      2  C   UNK A   1      -1.717  22.599  -3.540  1.00  0.00    +0.121 C 
ATOM      3  C   UNK A   1      -2.155  21.455  -4.448  1.00  0.00    -0.037 C 
ATOM      4  C   UNK A   1      -1.792  22.171  -2.058  1.00  0.00    +0.262 C 
ATOM      5  O   UNK A   1      -0.816  21.603  -1.539  1.00  0.00    -0.271 OA
ATOM      6  N   UNK A   1      -2.944  22.372  -1.395  1.00  0.00    -0.236 N 
ATOM      7  C   UNK A   1      -4.129  23.018  -2.066  1.00  0.00    +0.143 C 
ATOM      8  C   UNK A   1      -5.460  22.751  -1.275  1.00  0.00    +0.025 C 
ATOM      9  S   UNK A   1      -6.044  20.973  -1.211  1.00  0.00    -0.154 S 
ATOM     10  C   UNK A   1      -3.976  24.582  -2.131  1.00  0.00    +0.267 C 
ATOM     11  O   UNK A   1      -3.424  25.218  -1.225  1.00  0.00    -0.270 OA
ATOM     12  N   UNK A   1      -4.502  25.092  -3.272  1.00  0.00    -0.236 N 
ATOM     13  C   UNK A   1      -5.237  26.393  -3.092  1.00  0.00    +0.134 C 
ATOM     14  C   UNK A   1      -4.223  27.574  -2.990  1.00  0.00    -0.019 C 
ATOM     15  C   UNK A   1      -4.657  28.690  -2.013  1.00  0.00    -0.045 C 
ATOM     16  C   UNK A   1      -3.521  29.708  -1.858  1.00  0.00    -0.063 C 
ATOM     17  C   UNK A   1      -5.933  29.410  -2.447  1.00  0.00    -0.063 C 
ATOM     18  C   UNK A   1      -6.233  26.686  -4.298  1.00  0.00    +0.266 C 
ATOM     19  O   UNK A   1      -5.826  27.221  -5.339  1.00  0.00    -0.270 OA
ATOM     20  N   UNK A   1      -7.513  26.386  -3.984  1.00  0.00    -0.235 N 
ATOM     21  C   UNK A   1      -8.588  26.941  -4.863  1.00  0.00    +0.143 C 
ATOM     22  C   UNK A   1      -8.759  26.167  -6.185  1.00  0.00    +0.058 C 
ATOM     23  C   UNK A   1      -9.182  24.701  -6.238  1.00  0.00    +0.220 C 
ATOM     24  O   UNK A   1      -9.147  24.074  -7.309  1.00  0.00    -0.275 OA
ATOM     25  N   UNK A   1      -9.657  24.127  -5.106  1.00  0.00    -0.370 N 
ATOM     26  C   UNK A   1      -9.912  27.257  -4.046  1.00  0.00    +0.267 C 
ATOM     27  O   UNK A   1      -9.897  28.133  -3.175  1.00  0.00    -0.270 OA
ATOM     28  N   UNK A   1     -11.019  26.604  -4.477  1.00  0.00    -0.235 N 
ATOM     29  C   UNK A   1     -12.031  26.246  -3.406  1.00  0.00    +0.143 C 
ATOM     30  C   UNK A   1     -12.690  27.486  -2.727  1.00  0.00    +0.058 C 
ATOM     31  C   UNK A   1     -13.167  28.637  -3.627  1.00  0.00    +0.220 C 
ATOM     32  O   UNK A   1     -13.598  29.710  -3.189  1.00  0.00    -0.275 OA
ATOM     33  N   UNK A   1     -13.138  28.387  -4.978  1.00  0.00    -0.370 N 
ATOM     34  C   UNK A   1     -13.222  25.368  -3.966  1.00  0.00    +0.267 C 
ATOM     35  O   UNK A   1     -14.093  25.910  -4.664  1.00  0.00    -0.270 OA
ATOM     36  N   UNK A   1     -13.182  24.077  -3.564  1.00  0.00    -0.236 N 
ATOM     37  C   UNK A   1     -14.516  23.370  -3.343  1.00  0.00    +0.138 C 
ATOM     38  C   UNK A   1     -15.311  23.179  -4.666  1.00  0.00    +0.004 C 
ATOM     39  C   UNK A   1     -16.786  23.545  -4.562  1.00  0.00    -0.045 C 
ATOM     40  C   UNK A   1     -17.686  22.682  -3.930  1.00  0.00    -0.059 C 
ATOM     41  C   UNK A   1     -19.031  23.029  -3.790  1.00  0.00    -0.062 C 
ATOM     42  C   UNK A   1     -19.493  24.244  -4.294  1.00  0.00    -0.062 C 
ATOM     43  C   UNK A   1     -18.604  25.118  -4.921  1.00  0.00    -0.062 C 
ATOM     44  C   UNK A   1     -17.257  24.771  -5.050  1.00  0.00    -0.059 C 
ATOM     45  C   UNK A   1     -14.310  21.893  -2.761  1.00  0.00    +0.267 C 
ATOM     46  O   UNK A   1     -13.521  21.106  -3.291  1.00  0.00    -0.270 OA
ATOM     47  N   UNK A   1     -15.175  21.600  -1.753  1.00  0.00    -0.235 N 
ATOM     48  C   UNK A   1     -15.151  20.157  -1.240  1.00  0.00    +0.143 C 
ATOM     49  C   UNK A   1     -13.892  19.925  -0.338  1.00  0.00    +0.027 C 
ATOM     50  S   UNK A   1     -13.477  18.147   0.034  1.00  0.00    -0.140 S 
ATOM     51  C   UNK A   1     -16.489  19.920  -0.406  1.00  0.00    +0.267 C 
ATOM     52  O   UNK A   1     -16.869  20.713   0.461  1.00  0.00    -0.270 OA
ATOM     53  N   UNK A   1     -17.151  18.785  -0.752  1.00  0.00    -0.233 N 
ATOM     54  C   UNK A   1     -18.327  18.425   0.131  1.00  0.00    +0.158 C 
ATOM     55  C   UNK A   1     -19.648  18.924  -0.526  1.00  0.00    +0.083 C 
ATOM     56  C   UNK A   1     -20.884  18.659   0.334  1.00  0.00    -0.036 C 
ATOM     57  O   UNK A   1     -19.633  20.347  -0.756  1.00  0.00    -0.391 OA
ATOM     58  C   UNK A   1     -18.466  16.868   0.343  1.00  0.00    +0.250 C 
ATOM     59  O   UNK A   1     -19.016  16.134  -0.486  1.00  0.00    -0.272 OA
ATOM     60  N   UNK A   1     -18.013  16.413   1.605  1.00  0.00    -0.329 N 
ATOM     61  C   UNK A   1     -16.583  16.638   1.789  1.00  0.00    +0.021 C 
ATOM     62  C   UNK A   1     -15.930  15.278   1.483  1.00  0.00    -0.033 C 
ATOM     63  C   UNK A   1     -17.083  14.272   1.406  1.00  0.00    -0.022 C 
ATOM     64  C   UNK A   1     -18.220  15.022   2.089  1.00  0.00    +0.113 C 
ATOM     65  C   UNK A   1     -19.601  14.270   2.228  1.00  0.00    +0.264 C 
ATOM     66  O   UNK A   1     -20.691  14.813   2.026  1.00  0.00    -0.271 OA
ATOM     67  N   UNK A   1     -19.475  12.988   2.643  1.00  0.00    -0.236 N 
ATOM     68  C   UNK A   1     -19.162  12.854   4.114  1.00  0.00    +0.138 C 
ATOM     69  C   UNK A   1     -20.428  12.396   4.888  1.00  0.00    +0.004 C 
ATOM     70  C   UNK A   1     -20.964  10.999   4.625  1.00  0.00    -0.045 C 
ATOM     71  C   UNK A   1     -20.470   9.910   5.353  1.00  0.00    -0.059 C 
ATOM     72  C   UNK A   1     -20.949   8.622   5.113  1.00  0.00    -0.062 C 
ATOM     73  C   UNK A   1     -21.919   8.407   4.133  1.00  0.00    -0.062 C 
ATOM     74  C   UNK A   1     -22.401   9.482   3.388  1.00  0.00    -0.062 C 
ATOM     75  C   UNK A   1     -21.925  10.772   3.634  1.00  0.00    -0.059 C 
ATOM     76  C   UNK A   1     -17.930  11.937   4.456  1.00  0.00    +0.267 C 
ATOM     77  O   UNK A   1     -17.540  11.043   3.702  1.00  0.00    -0.270 OA
ATOM     78  N   UNK A   1     -17.465  12.202   5.699  1.00  0.00    -0.235 N 
ATOM     79  C   UNK A   1     -15.953  12.124   5.885  1.00  0.00    +0.143 C 
ATOM     80  C   UNK A   1     -15.319  13.559   5.696  1.00  0.00    +0.060 C 
ATOM     81  C   UNK A   1     -13.852  13.708   5.147  1.00  0.00    +0.244 C 
ATOM     82  O   UNK A   1     -13.035  12.790   5.146  1.00  0.00    -0.273 OA
ATOM     83  C   UNK A   1     -15.805  11.612   7.381  1.00  0.00    +0.267 C 
ATOM     84  O   UNK A   1     -16.075  12.286   8.382  1.00  0.00    -0.270 OA
ATOM     85  N   UNK A   1     -13.610  14.987   4.760  1.00  0.00    -0.235 N 
ATOM     86  C   UNK A   1     -12.471  15.166   3.795  1.00  0.00    +0.160 C 
ATOM     87  C   UNK A   1     -12.573  16.534   3.021  1.00  0.00    +0.028 C 
ATOM     88  S   UNK A   1     -11.277  16.712   1.691  1.00  0.00    -0.140 S 
ATOM     89  C   UNK A   1     -11.153  15.094   4.541  1.00  0.00    +0.329 C 
ATOM     90  O   UNK A   1     -10.206  14.343   4.323  1.00  0.00    -0.250 OA
ATOM     91  O   UNK A   1     -11.008  16.002   5.539  1.00  0.00    -0.480 OA
ATOM     92  N   UNK A   1     -15.334  10.352   7.488  1.00  0.00    -0.238 N 
ATOM     93  C   UNK A   1     -16.026   9.530   8.489  1.00  0.00    +0.140 C 
ATOM     94  C   UNK A   1     -15.463   9.621   9.890  1.00  0.00    +0.325 C 
ATOM     95  O   UNK A   1     -15.401   8.669  10.673  1.00  0.00    -0.250 OA
ATOM     96  O   UNK A   1     -15.106  10.868  10.275  1.00  0.00    -0.480 OA
ATOM     97  C   UNK A   1      -9.440  18.116  -2.391  1.00  0.00    -0.059 C 
ATOM     98  C   UNK A   1      -8.597  19.204  -2.177  1.00  0.00    -0.058 C 
ATOM     99  C   UNK A   1      -8.721  19.990  -1.029  1.00  0.00    -0.038 C 
ATOM    100  C   UNK A   1      -7.853  21.242  -0.866  1.00  0.00    +0.019 C 
ATOM    101  C   UNK A   1      -9.769  19.665  -0.124  1.00  0.00    -0.053 C 
ATOM    102  C   UNK A   1     -10.663  18.565  -0.323  1.00  0.00    -0.022 C 
ATOM    103  C   UNK A   1     -11.781  18.291   0.731  1.00  0.00    +0.076 C 
ATOM    104  C   UNK A   1     -10.458  17.767  -1.480  1.00  0.00    -0.046 C 
ATOM    105  C   UNK A   1     -11.337  16.608  -1.873  1.00  0.00    -0.039 C 
ATOM    106  H   UNK A   1      -2.274  23.509  -3.753  1.00  0.00    +0.060 HD
ATOM    107  H   UNK A   1      -3.176  21.131  -4.232  1.00  0.00    +0.025 HD
ATOM    108  H   UNK A   1      -1.511  20.575  -4.323  1.00  0.00    +0.025 HD
ATOM    109  H   UNK A   1      -2.112  21.753  -5.503  1.00  0.00    +0.025 HD
ATOM    110  H   UNK A   1      -4.292  22.629  -3.077  1.00  0.00    +0.067 HD
ATOM    111  H   UNK A   1      -6.267  23.338  -1.727  1.00  0.00    +0.041 HD
ATOM    112  H   UNK A   1      -5.351  23.090  -0.237  1.00  0.00    +0.041 HD
ATOM    113  H   UNK A   1      -5.835  26.365  -2.168  1.00  0.00    +0.066 HD
ATOM    114  H   UNK A   1      -4.028  28.014  -3.974  1.00  0.00    +0.030 HD
ATOM    115  H   UNK A   1      -3.247  27.209  -2.650  1.00  0.00    +0.030 HD
ATOM    116  H   UNK A   1      -4.833  28.240  -1.027  1.00  0.00    +0.030 HD
ATOM    117  H   UNK A   1      -3.778  30.467  -1.108  1.00  0.00    +0.023 HD
ATOM    118  H   UNK A   1      -3.313  30.224  -2.803  1.00  0.00    +0.023 HD
ATOM    119  H   UNK A   1      -2.599  29.217  -1.528  1.00  0.00    +0.023 HD
ATOM    120  H   UNK A   1      -6.147  30.255  -1.781  1.00  0.00    +0.023 HD
ATOM    121  H   UNK A   1      -5.843  29.800  -3.466  1.00  0.00    +0.023 HD
ATOM    122  H   UNK A   1      -6.798  28.743  -2.408  1.00  0.00    +0.023 HD
ATOM    123  H   UNK A   1      -8.293  27.958  -5.180  1.00  0.00    +0.066 HD
ATOM    124  H   UNK A   1      -9.497  26.700  -6.802  1.00  0.00    +0.039 HD
ATOM    125  H   UNK A   1      -7.811  26.209  -6.738  1.00  0.00    +0.039 HD
ATOM    126  H   UNK A   1     -10.012  24.782  -4.400  1.00  0.00    +0.159 HD
ATOM    127  H   UNK A   1     -10.207  23.284  -5.160  1.00  0.00    +0.159 HD
ATOM    128  H   UNK A   1     -11.545  25.664  -2.606  1.00  0.00    +0.066 HD
ATOM    129  H   UNK A   1     -11.992  27.925  -2.006  1.00  0.00    +0.039 HD
ATOM    130  H   UNK A   1     -13.566  27.161  -2.149  1.00  0.00    +0.039 HD
ATOM    131  H   UNK A   1     -13.620  27.482  -5.106  1.00  0.00    +0.159 HD
ATOM    132  H   UNK A   1     -12.202  27.968  -5.143  1.00  0.00    +0.159 HD
ATOM    133  H   UNK A   1     -15.104  23.946  -2.613  1.00  0.00    +0.066 HD
ATOM    134  H   UNK A   1     -15.265  22.135  -5.010  1.00  0.00    +0.034 HD
ATOM    135  H   UNK A   1     -14.872  23.745  -5.497  1.00  0.00    +0.034 HD
ATOM    136  H   UNK A   1     -17.317  21.757  -3.477  1.00  0.00    +0.063 HD
ATOM    137  H   UNK A   1     -19.679  22.353  -3.237  1.00  0.00    +0.062 HD
ATOM    138  H   UNK A   1     -20.530  24.516  -4.143  1.00  0.00    +0.062 HD
ATOM    139  H   UNK A   1     -18.934  26.088  -5.269  1.00  0.00    +0.062 HD
ATOM    140  H   UNK A   1     -16.536  25.465  -5.482  1.00  0.00    +0.063 HD
ATOM    141  H   UNK A   1     -15.141  19.453  -2.086  1.00  0.00    +0.067 HD
ATOM    142  H   UNK A   1     -14.030  20.425   0.628  1.00  0.00    +0.041 HD
ATOM    143  H   UNK A   1     -13.007  20.359  -0.811  1.00  0.00    +0.041 HD
ATOM    144  H   UNK A   1     -18.248  18.880   1.130  1.00  0.00    +0.068 HD
ATOM    145  H   UNK A   1     -19.782  18.446  -1.505  1.00  0.00    +0.063 HD
ATOM    146  H   UNK A   1     -21.783  19.033  -0.174  1.00  0.00    +0.026 HD
ATOM    147  H   UNK A   1     -20.816  19.190   1.291  1.00  0.00    +0.026 HD
ATOM    148  H   UNK A   1     -21.034  17.594   0.533  1.00  0.00    +0.026 HD
ATOM    149  H   UNK A   1     -18.665  20.558  -0.708  1.00  0.00    +0.211 HD
ATOM    150  H   UNK A   1     -16.417  16.912   2.837  1.00  0.00    +0.049 HD
ATOM    151  H   UNK A   1     -16.171  17.427   1.167  1.00  0.00    +0.049 HD
ATOM    152  H   UNK A   1     -15.362  15.298   0.547  1.00  0.00    +0.029 HD
ATOM    153  H   UNK A   1     -15.240  15.009   2.289  1.00  0.00    +0.029 HD
ATOM    154  H   UNK A   1     -16.823  13.324   1.883  1.00  0.00    +0.029 HD
ATOM    155  H   UNK A   1     -17.340  14.061   0.362  1.00  0.00    +0.029 HD
ATOM    156  H   UNK A   1     -17.938  15.127   3.150  1.00  0.00    +0.064 HD
ATOM    157  H   UNK A   1     -18.911  13.841   4.535  1.00  0.00    +0.066 HD
ATOM    158  H   UNK A   1     -21.238  13.117   4.696  1.00  0.00    +0.034 HD
ATOM    159  H   UNK A   1     -20.243  12.484   5.967  1.00  0.00    +0.034 HD
ATOM    160  H   UNK A   1     -19.651  10.079   6.056  1.00  0.00    +0.063 HD
ATOM    161  H   UNK A   1     -20.503   7.795   5.653  1.00  0.00    +0.062 HD
ATOM    162  H   UNK A   1     -22.250   7.400   3.914  1.00  0.00    +0.062 HD
ATOM    163  H   UNK A   1     -23.103   9.328   2.578  1.00  0.00    +0.062 HD
ATOM    164  H   UNK A   1     -22.235  11.612   3.013  1.00  0.00    +0.063 HD
ATOM    165  H   UNK A   1     -15.471  11.412   5.204  1.00  0.00    +0.066 HD
ATOM    166  H   UNK A   1     -15.953  14.107   4.983  1.00  0.00    +0.040 HD
ATOM    167  H   UNK A   1     -15.361  14.107   6.645  1.00  0.00    +0.040 HD
ATOM    168  H   UNK A   1     -12.477  14.362   3.048  1.00  0.00    +0.068 HD
ATOM    169  H   UNK A   1     -12.455  17.379   3.710  1.00  0.00    +0.041 HD
ATOM    170  H   UNK A   1     -13.559  16.611   2.560  1.00  0.00    +0.041 HD
ATOM    171  H   UNK A   1     -10.179  15.665   5.913  1.00  0.00    +0.296 HD
ATOM    172  H   UNK A   1     -15.932   8.477   8.195  1.00  0.00    +0.064 HD
ATOM    173  H   UNK A   1     -17.103   9.728   8.551  1.00  0.00    +0.064 HD
ATOM    174  H   UNK A   1     -15.292  11.441   9.465  1.00  0.00    +0.296 HD
ATOM    175  H   UNK A   1      -9.324  17.550  -3.312  1.00  0.00    +0.063 HD
ATOM    176  H   UNK A   1      -7.870  19.469  -2.938  1.00  0.00    +0.063 HD
ATOM    177  H   UNK A   1      -8.239  22.011  -1.544  1.00  0.00    +0.043 HD
ATOM    178  H   UNK A   1      -7.924  21.608   0.162  1.00  0.00    +0.043 HD
ATOM    179  H   UNK A   1      -9.930  20.316   0.736  1.00  0.00    +0.063 HD
ATOM    180  H   UNK A   1     -11.788  19.090   1.478  1.00  0.00    +0.058 HD
ATOM    181  H   UNK A   1     -11.626  15.989  -1.023  1.00  0.00    +0.028 HD
ATOM    182  H   UNK A   1     -12.227  16.971  -2.395  1.00  0.00    +0.028 HD
ATOM    183  H   UNK A   1     -10.803  15.931  -2.554  1.00  0.00    +0.028 HD
ENDROOT
TORSDOF 0
ENDMDL
